Ba    ONCVPSP-4.0.1  r_core=   1.95988   1.80243   1.90213
     56.0000     10.0000      240309    zatom,zion,pspd
     8      11   2     4   600     0    pspcod,pspxc,lmax,lloc,mmax,r2well
  5.99000000  5.00000000  0.00000000    rchrg fchrg qchrg
     2     3     2     0    nproj
     3     1           extension_switch
     3     3     0    nprojso
   0                         6.5109297847191E+00  6.2686910982750E-01
     1  0.0000000000000E+00  4.8930026697036E-12 -3.9091938019986E-11
     2  1.0000000000000E-02  2.5109210312838E-02 -3.5396024733291E-03
     3  2.0000000000000E-02  5.0221330933741E-02 -7.1153592794549E-03
     4  3.0000000000000E-02  7.5339188354725E-02 -1.0763106388546E-02
     5  4.0000000000000E-02  1.0046544184451E-01 -1.4518045016515E-02
     6  5.0000000000000E-02  1.2560250085769E-01 -1.8414429165547E-02
     7  6.0000000000000E-02  1.5075244366543E-01 -2.2485259038342E-02
     8  7.0000000000000E-02  1.7591693760934E-01 -2.6761982238224E-02
     9  8.0000000000000E-02  2.0109716137507E-01 -3.1274204628167E-02
    10  9.0000000000000E-02  2.2629372967618E-01 -3.6049412672991E-02
    11  1.0000000000000E-01  2.5150662073116E-01 -4.1112709030742E-02
    12  1.1000000000000E-01  2.7673510690799E-01 -4.6486563091507E-02
    13  1.2000000000000E-01  3.0197768889997E-01 -5.2190578084826E-02
    14  1.3000000000000E-01  3.2723203378528E-01 -5.8241276290861E-02
    15  1.4000000000000E-01  3.5249491730951E-01 -6.4651903795340E-02
    16  1.5000000000000E-01  3.7776217071561E-01 -7.1432256124604E-02
    17  1.6000000000000E-01  4.0302863242988E-01 -7.8588525985187E-02
    18  1.7000000000000E-01  4.2828810489452E-01 -8.6123174212019E-02
    19  1.8000000000000E-01  4.5353331681808E-01 -9.4034824901753E-02
    20  1.9000000000000E-01  4.7875589109423E-01 -1.0231818557279E-01
    21  2.0000000000000E-01  5.0394631861651E-01 -1.1096399305157E-01
    22  2.1000000000000E-01  5.2909393819245E-01 -1.1995898563704E-01
    23  2.2000000000000E-01  5.5418692273489E-01 -1.2928590194152E-01
    24  2.3000000000000E-01  5.7921227188054E-01 -1.3892350664752E-01
    25  2.4000000000000E-01  6.0415581115707E-01 -1.4884664325760E-01
    26  2.5000000000000E-01  6.2900219778970E-01 -1.5902631374774E-01
    27  2.6000000000000E-01  6.5373493320618E-01 -1.6942978486611E-01
    28  2.7000000000000E-01  6.7833638226649E-01 -1.8002072064847E-01
    29  2.8000000000000E-01  7.0278779920877E-01 -1.9075934054953E-01
    30  2.9000000000000E-01  7.2706936026860E-01 -2.0160260241962E-01
    31  3.0000000000000E-01  7.5116020289197E-01 -2.1250440938463E-01
    32  3.1000000000000E-01  7.7503847142627E-01 -2.2341583952083E-01
    33  3.2000000000000E-01  7.9868136913614E-01 -2.3428539705177E-01
    34  3.3000000000000E-01  8.2206521635393E-01 -2.4505928363524E-01
    35  3.4000000000000E-01  8.4516551453716E-01 -2.5568168815483E-01
    36  3.5000000000000E-01  8.6795701596839E-01 -2.6609509328471E-01
    37  3.6000000000000E-01  8.9041379879653E-01 -2.7624059695796E-01
    38  3.7000000000000E-01  9.1250934708270E-01 -2.8605824674080E-01
    39  3.8000000000000E-01  9.3421663547971E-01 -2.9548738499722E-01
    40  3.9000000000000E-01  9.5550821814067E-01 -3.0446700262309E-01
    41  4.0000000000000E-01  9.7635632142096E-01 -3.1293609903621E-01
    42  4.1000000000000E-01  9.9673293990861E-01 -3.2083404603034E-01
    43  4.2000000000000E-01  1.0166099352907E+00 -3.2810095303808E-01
    44  4.3000000000000E-01  1.0359591375391E+00 -3.3467803130050E-01
    45  4.4000000000000E-01  1.0547524478771E+00 -3.4050795441141E-01
    46  4.5000000000000E-01  1.0729619429705E+00 -3.4553521269147E-01
    47  4.6000000000000E-01  1.0905599797702E+00 -3.4970645885444E-01
    48  4.7000000000000E-01  1.1075193004245E+00 -3.5297084245190E-01
    49  4.8000000000000E-01  1.1238131366689E+00 -3.5528033062801E-01
    50  4.9000000000000E-01  1.1394153130990E+00 -3.5659001277946E-01
    51  5.0000000000000E-01  1.1543003487334E+00 -3.5685838680001E-01
    52  5.1000000000000E-01  1.1684435562775E+00 -3.5604762469171E-01
    53  5.2000000000000E-01  1.1818211385082E+00 -3.5412381544830E-01
    54  5.3000000000000E-01  1.1944102812139E+00 -3.5105718325749E-01
    55  5.4000000000000E-01  1.2061892421441E+00 -3.4682227922943E-01
    56  5.5000000000000E-01  1.2171374354411E+00 -3.4139814503611E-01
    57  5.6000000000000E-01  1.2272355110601E+00 -3.3476844704094E-01
    58  5.7000000000000E-01  1.2364654287089E+00 -3.2692157970798E-01
    59  5.8000000000000E-01  1.2448105258787E+00 -3.1785073730448E-01
    60  5.9000000000000E-01  1.2522555795749E+00 -3.0755395314743E-01
    61  6.0000000000000E-01  1.2587868614003E+00 -2.9603410589338E-01
    62  6.1000000000000E-01  1.2643921856908E+00 -2.8329889262819E-01
    63  6.2000000000000E-01  1.2690609504510E+00 -2.6936076877895E-01
    64  6.3000000000000E-01  1.2727841708931E+00 -2.5423685514047E-01
    65  6.4000000000000E-01  1.2755545054338E+00 -2.3794881258293E-01
    66  6.5000000000000E-01  1.2773662740630E+00 -2.2052268528202E-01
    67  6.6000000000000E-01  1.2782154690554E+00 -2.0198871358635E-01
    68  6.7000000000000E-01  1.2780997580542E+00 -1.8238111790651E-01
    69  6.8000000000000E-01  1.2770184796177E+00 -1.6173785527365E-01
    70  6.9000000000000E-01  1.2749726313772E+00 -1.4010035047006E-01
    71  7.0000000000000E-01  1.2719648510141E+00 -1.1751320387772E-01
    72  7.1000000000000E-01  1.2679993903207E+00 -9.4023878420692E-02
    73  7.2000000000000E-01  1.2630820826668E+00 -6.9682368190514E-02
    74  7.3000000000000E-01  1.2572203042464E+00 -4.4540851539882E-02
    75  7.4000000000000E-01  1.2504229295277E+00 -1.8653331603747E-02
    76  7.5000000000000E-01  1.2427002813813E+00  7.9247326403820E-03
    77  7.6000000000000E-01  1.2340640763998E+00  3.5136801534298E-02
    78  7.7000000000000E-01  1.2245273659641E+00  6.2925632783186E-02
    79  7.8000000000000E-01  1.2141044736437E+00  9.1233658969661E-02
    80  7.9000000000000E-01  1.2028109295494E+00  1.2000336108189E-01
    81  8.0000000000000E-01  1.1906634022763E+00  1.4917763458745E-01
    82  8.1000000000000E-01  1.1776796290959E+00  1.7870014460257E-01
    83  8.2000000000000E-01  1.1638783450634E+00  2.0851566675857E-01
    84  8.3000000000000E-01  1.1492792117139E+00  2.3857041044906E-01
    85  8.4000000000000E-01  1.1339027460144E+00  2.6881232125867E-01
    86  8.5000000000000E-01  1.1177702502351E+00  2.9919135952078E-01
    87  8.6000000000000E-01  1.1009037433814E+00  3.2965975213282E-01
    88  8.7000000000000E-01  1.0833258948097E+00  3.6017221496708E-01
    89  8.8000000000000E-01  1.0650599606180E+00  3.9068614345562E-01
    90  8.9000000000000E-01  1.0461297233683E+00  4.2116176919634E-01
    91  9.0000000000000E-01  1.0265594356530E+00  4.5156228072135E-01
    92  9.1000000000000E-01  1.0063737679714E+00  4.8185390688797E-01
    93  9.2000000000000E-01  9.8559776132777E-01  5.1200596169330E-01
    94  9.3000000000000E-01  9.6425678490283E-01  5.4199084967282E-01
    95  9.4000000000000E-01  9.4237649908708E-01  5.7178403141971E-01
    96  9.5000000000000E-01  9.1998282409719E-01  6.0136394915137E-01
    97  9.6000000000000E-01  8.9710191432429E-01  6.3071191264735E-01
    98  9.7000000000000E-01  8.7376013848935E-01  6.5981194628969E-01
    99  9.8000000000000E-01  8.4998406560461E-01  6.8865059834346E-01
   100  9.9000000000000E-01  8.2580045666195E-01  7.1721671402261E-01
   101  1.0000000000000E+00  8.0123626189134E-01  7.4550117428772E-01
   102  1.0100000000000E+00  7.7631862335383E-01  7.7349660271519E-01
   103  1.0200000000000E+00  7.5107488255716E-01  8.0119704315673E-01
   104  1.0300000000000E+00  7.2553259270636E-01  8.2859761127154E-01
   105  1.0400000000000E+00  6.9971953512960E-01  8.5569412335564E-01
   106  1.0500000000000E+00  6.7366373935031E-01  8.8248270621044E-01
   107  1.0600000000000E+00  6.4739350621223E-01  9.0895939208308E-01
   108  1.0700000000000E+00  6.2093743340419E-01  9.3511970296858E-01
   109  1.0800000000000E+00  5.9432444267792E-01  9.6095822878834E-01
   110  1.0900000000000E+00  5.6758380800504E-01  9.8646820414478E-01
   111  1.1000000000000E+00  5.4074518387918E-01  1.0116410884979E+00
   112  1.1100000000000E+00  5.1383863293748E-01  1.0364661547123E+00
   113  1.1200000000000E+00  4.8689465205138E-01  1.0609300909806E+00
   114  1.1300000000000E+00  4.5994419602209E-01  1.0850166211425E+00
   115  1.1400000000000E+00  4.3301869800984E-01  1.1087061483805E+00
   116  1.1500000000000E+00  4.0615008583021E-01  1.1319754271898E+00
   117  1.1600000000000E+00  3.7937079326353E-01  1.1547972683873E+00
   118  1.1700000000000E+00  3.5271376554711E-01  1.1771402817399E+00
   119  1.1800000000000E+00  3.2621245825256E-01  1.1989686605633E+00
   120  1.1900000000000E+00  2.9990082879363E-01  1.2202420123650E+00
   121  1.2000000000000E+00  2.7381331986190E-01  1.2409152392779E+00
   122  1.2100000000000E+00  2.4798483414970E-01  1.2609384716667E+00
   123  1.2200000000000E+00  2.2245069978991E-01  1.2802570578764E+00
   124  1.2300000000000E+00  1.9724662602139E-01  1.2988116126460E+00
   125  1.2400000000000E+00  1.7240864867597E-01  1.3165381262235E+00
   126  1.2500000000000E+00  1.4797306517670E-01  1.3333681357038E+00
   127  1.2600000000000E+00  1.2397635883798E-01  1.3492289595666E+00
   128  1.2700000000000E+00  1.0045511236466E-01  1.3640439958220E+00
   129  1.2800000000000E+00  7.7445910557872E-02  1.3777330835859E+00
   130  1.2900000000000E+00  5.4985232350664E-02  1.3902129273042E+00
   131  1.3000000000000E+00  3.3109332414200E-02  1.4013975822376E+00
   132  1.3100000000000E+00  1.1854112694395E-02  1.4111989992004E+00
   133  1.3200000000000E+00 -8.7450156409996E-03  1.4195276259416E+00
   134  1.3300000000000E+00 -2.8653279245256E-02  1.4262930619441E+00
   135  1.3400000000000E+00 -4.7836697908333E-02  1.4314047628347E+00
   136  1.3500000000000E+00 -6.6262247313450E-02  1.4347727900193E+00
   137  1.3600000000000E+00 -8.3898028291788E-02  1.4363086006126E+00
   138  1.3700000000000E+00 -1.0071344152698E-01  1.4359258722133E+00
   139  1.3800000000000E+00 -1.1667936656193E-01  1.4335413565909E+00
   140  1.3900000000000E+00 -1.3176834386888E-01  1.4290757559084E+00
   141  1.4000000000000E+00 -1.4595475866022E-01  1.4224546147079E+00
   142  1.4100000000000E+00 -1.5921502504361E-01  1.4136092205347E+00
   143  1.4200000000000E+00 -1.7152776906203E-01  1.4024775057807E+00
   144  1.4300000000000E+00 -1.8287400910665E-01  1.3890049430934E+00
   145  1.4400000000000E+00 -1.9323733215058E-01  1.3731454265112E+00
   146  1.4500000000000E+00 -2.0260406422348E-01  1.3548621303779E+00
   147  1.4600000000000E+00 -2.1096343353298E-01  1.3341283380363E+00
   148  1.4700000000000E+00 -2.1830772463738E-01  1.3109282323159E+00
   149  1.4800000000000E+00 -2.2463242208730E-01  1.2852576399201E+00
   150  1.4900000000000E+00 -2.2993634198093E-01  1.2571247219661E+00
   151  1.5000000000000E+00 -2.3422174991803E-01  1.2265506031569E+00
   152  1.5100000000000E+00 -2.3749446389352E-01  1.1935699323506E+00
   153  1.5200000000000E+00 -2.3976394073983E-01  1.1582313676515E+00
   154  1.5300000000000E+00 -2.4104334480949E-01  1.1205979795633E+00
   155  1.5400000000000E+00 -2.4134959768498E-01  1.0807475662289E+00
   156  1.5500000000000E+00 -2.4070340781015E-01  1.0387728753210E+00
   157  1.5600000000000E+00 -2.3912927905689E-01  9.9478172773932E-01
   158  1.5700000000000E+00 -2.3665549737095E-01  9.4889703891915E-01
   159  1.5800000000000E+00 -2.3331409478076E-01  9.0125673424388E-01
   160  1.5900000000000E+00 -2.2914079020150E-01  8.5201355578506E-01
   161  1.6000000000000E+00 -2.2417490662391E-01  8.0133475836126E-01
   162  1.6100000000000E+00 -2.1845926443905E-01  7.4940169369758E-01
   163  1.6200000000000E+00 -2.1204005081911E-01  6.9640928228731E-01
   164  1.6300000000000E+00 -2.0496666524549E-01  6.4256537338714E-01
   165  1.6400000000000E+00 -1.9729154144949E-01  5.8808999441825E-01
   166  1.6500000000000E+00 -1.8906994620540E-01  5.3321449188748E-01
   167  1.6600000000000E+00 -1.8035975559028E-01  4.7818056677904E-01
   168  1.6700000000000E+00 -1.7122120949606E-01  4.2323920819117E-01
   169  1.6800000000000E+00 -1.6171664534799E-01  3.6864952979542E-01
   170  1.6900000000000E+00 -1.5191021214659E-01  3.1467751447341E-01
   171  1.7000000000000E+00 -1.4186756610592E-01  2.6159467322851E-01
   172  1.7100000000000E+00 -1.3165554931003E-01  2.0967662517278E-01
   173  1.7200000000000E+00 -1.2134185294752E-01  1.5920160604517E-01
   174  1.7300000000000E+00 -1.1099466681269E-01  1.1044891331968E-01
   175  1.7400000000000E+00 -1.0068231687767E-01  6.3697296507271E-02
   176  1.7500000000000E+00 -9.0472892843137E-02  1.9223301736264E-02
   177  1.7600000000000E+00 -8.0433867664347E-02 -2.2700419891217E-02
   178  1.7700000000000E+00 -7.0631711123355E-02 -6.1806830327694E-02
   179  1.7800000000000E+00 -6.1131499547574E-02 -9.7836239067671E-02
   180  1.7900000000000E+00 -5.1996523764839E-02 -1.3053804424327E-01
   181  1.8000000000000E+00 -4.3287900559482E-02 -1.5967245166060E-01
   182  1.8100000000000E+00 -3.5064180185410E-02 -1.8501221890067E-01
   183  1.8200000000000E+00 -2.7381213067161E-02 -2.0634284043558E-01
   184  1.8300000000000E+00 -2.0292144892166E-02 -2.2346206330317E-01
   185  1.8400000000000E+00 -1.3847233563127E-02 -2.3618062701935E-01
   186  1.8500000000000E+00 -8.0935363096932E-03 -2.4432368345618E-01
   187  1.8600000000000E+00 -3.0746841145554E-03 -2.4773194844340E-01
   188  1.8700000000000E+00  1.1685906018354E-03 -2.4626115389529E-01
   189  1.8800000000000E+00  4.5989699502361E-03 -2.3978358534642E-01
   190  1.8900000000000E+00  7.1850942752719E-03 -2.2819407864239E-01
   191  1.9000000000000E+00  8.8999057433699E-03 -2.1140725857482E-01
   192  1.9100000000000E+00  9.7208016943993E-03 -1.8935823390104E-01
   193  1.9200000000000E+00  9.6297457803773E-03 -1.6200315877608E-01
   194  1.9300000000000E+00  8.6010398745464E-03 -1.2918129388970E-01
   195  1.9400000000000E+00  6.7371148567190E-03 -9.2151227261488E-02
   196  1.9500000000000E+00  3.6194060906856E-03 -4.6193856683293E-02
   197  1.9600000000000E+00 -1.9469275554051E-05  2.4395477067928E-04
   198  1.9700000000000E+00 -1.2912720404143E-04  1.6015695025888E-03
   199  1.98  0.  0.
   200  1.99  0.  0.
   201  2.00  0.  0.
   202  2.01  0.  0.
   203  2.02  0.  0.
   204  2.03  0.  0.
   205  2.04  0.  0.
   206  2.05  0.  0.
   207  2.06  0.  0.
   208  2.07  0.  0.
   209  2.08  0.  0.
   210  2.09  0.  0.
   211  2.10  0.  0.
   212  2.11  0.  0.
   213  2.12  0.  0.
   214  2.13  0.  0.
   215  2.14  0.  0.
   216  2.15  0.  0.
   217  2.16  0.  0.
   218  2.17  0.  0.
   219  2.18  0.  0.
   220  2.19  0.  0.
   221  2.20  0.  0.
   222  2.21  0.  0.
   223  2.22  0.  0.
   224  2.23  0.  0.
   225  2.24  0.  0.
   226  2.25  0.  0.
   227  2.26  0.  0.
   228  2.27  0.  0.
   229  2.28  0.  0.
   230  2.29  0.  0.
   231  2.30  0.  0.
   232  2.31  0.  0.
   233  2.32  0.  0.
   234  2.33  0.  0.
   235  2.34  0.  0.
   236  2.35  0.  0.
   237  2.36  0.  0.
   238  2.37  0.  0.
   239  2.38  0.  0.
   240  2.39  0.  0.
   241  2.40  0.  0.
   242  2.41  0.  0.
   243  2.42  0.  0.
   244  2.43  0.  0.
   245  2.44  0.  0.
   246  2.45  0.  0.
   247  2.46  0.  0.
   248  2.47  0.  0.
   249  2.48  0.  0.
   250  2.49  0.  0.
   251  2.50  0.  0.
   252  2.51  0.  0.
   253  2.52  0.  0.
   254  2.53  0.  0.
   255  2.54  0.  0.
   256  2.55  0.  0.
   257  2.56  0.  0.
   258  2.57  0.  0.
   259  2.58  0.  0.
   260  2.59  0.  0.
   261  2.60  0.  0.
   262  2.61  0.  0.
   263  2.62  0.  0.
   264  2.63  0.  0.
   265  2.64  0.  0.
   266  2.65  0.  0.
   267  2.66  0.  0.
   268  2.67  0.  0.
   269  2.68  0.  0.
   270  2.69  0.  0.
   271  2.70  0.  0.
   272  2.71  0.  0.
   273  2.72  0.  0.
   274  2.73  0.  0.
   275  2.74  0.  0.
   276  2.75  0.  0.
   277  2.76  0.  0.
   278  2.77  0.  0.
   279  2.78  0.  0.
   280  2.79  0.  0.
   281  2.80  0.  0.
   282  2.81  0.  0.
   283  2.82  0.  0.
   284  2.83  0.  0.
   285  2.84  0.  0.
   286  2.85  0.  0.
   287  2.86  0.  0.
   288  2.87  0.  0.
   289  2.88  0.  0.
   290  2.89  0.  0.
   291  2.90  0.  0.
   292  2.91  0.  0.
   293  2.92  0.  0.
   294  2.93  0.  0.
   295  2.94  0.  0.
   296  2.95  0.  0.
   297  2.96  0.  0.
   298  2.97  0.  0.
   299  2.98  0.  0.
   300  2.99  0.  0.
   301  3.00  0.  0.
   302  3.01  0.  0.
   303  3.02  0.  0.
   304  3.03  0.  0.
   305  3.04  0.  0.
   306  3.05  0.  0.
   307  3.06  0.  0.
   308  3.07  0.  0.
   309  3.08  0.  0.
   310  3.09  0.  0.
   311  3.10  0.  0.
   312  3.11  0.  0.
   313  3.12  0.  0.
   314  3.13  0.  0.
   315  3.14  0.  0.
   316  3.15  0.  0.
   317  3.16  0.  0.
   318  3.17  0.  0.
   319  3.18  0.  0.
   320  3.19  0.  0.
   321  3.20  0.  0.
   322  3.21  0.  0.
   323  3.22  0.  0.
   324  3.23  0.  0.
   325  3.24  0.  0.
   326  3.25  0.  0.
   327  3.26  0.  0.
   328  3.27  0.  0.
   329  3.28  0.  0.
   330  3.29  0.  0.
   331  3.30  0.  0.
   332  3.31  0.  0.
   333  3.32  0.  0.
   334  3.33  0.  0.
   335  3.34  0.  0.
   336  3.35  0.  0.
   337  3.36  0.  0.
   338  3.37  0.  0.
   339  3.38  0.  0.
   340  3.39  0.  0.
   341  3.40  0.  0.
   342  3.41  0.  0.
   343  3.42  0.  0.
   344  3.43  0.  0.
   345  3.44  0.  0.
   346  3.45  0.  0.
   347  3.46  0.  0.
   348  3.47  0.  0.
   349  3.48  0.  0.
   350  3.49  0.  0.
   351  3.50  0.  0.
   352  3.51  0.  0.
   353  3.52  0.  0.
   354  3.53  0.  0.
   355  3.54  0.  0.
   356  3.55  0.  0.
   357  3.56  0.  0.
   358  3.57  0.  0.
   359  3.58  0.  0.
   360  3.59  0.  0.
   361  3.60  0.  0.
   362  3.61  0.  0.
   363  3.62  0.  0.
   364  3.63  0.  0.
   365  3.64  0.  0.
   366  3.65  0.  0.
   367  3.66  0.  0.
   368  3.67  0.  0.
   369  3.68  0.  0.
   370  3.69  0.  0.
   371  3.70  0.  0.
   372  3.71  0.  0.
   373  3.72  0.  0.
   374  3.73  0.  0.
   375  3.74  0.  0.
   376  3.75  0.  0.
   377  3.76  0.  0.
   378  3.77  0.  0.
   379  3.78  0.  0.
   380  3.79  0.  0.
   381  3.80  0.  0.
   382  3.81  0.  0.
   383  3.82  0.  0.
   384  3.83  0.  0.
   385  3.84  0.  0.
   386  3.85  0.  0.
   387  3.86  0.  0.
   388  3.87  0.  0.
   389  3.88  0.  0.
   390  3.89  0.  0.
   391  3.90  0.  0.
   392  3.91  0.  0.
   393  3.92  0.  0.
   394  3.93  0.  0.
   395  3.94  0.  0.
   396  3.95  0.  0.
   397  3.96  0.  0.
   398  3.97  0.  0.
   399  3.98  0.  0.
   400  3.99  0.  0.
   401  4.00  0.  0.
   402  4.01  0.  0.
   403  4.02  0.  0.
   404  4.03  0.  0.
   405  4.04  0.  0.
   406  4.05  0.  0.
   407  4.06  0.  0.
   408  4.07  0.  0.
   409  4.08  0.  0.
   410  4.09  0.  0.
   411  4.10  0.  0.
   412  4.11  0.  0.
   413  4.12  0.  0.
   414  4.13  0.  0.
   415  4.14  0.  0.
   416  4.15  0.  0.
   417  4.16  0.  0.
   418  4.17  0.  0.
   419  4.18  0.  0.
   420  4.19  0.  0.
   421  4.20  0.  0.
   422  4.21  0.  0.
   423  4.22  0.  0.
   424  4.23  0.  0.
   425  4.24  0.  0.
   426  4.25  0.  0.
   427  4.26  0.  0.
   428  4.27  0.  0.
   429  4.28  0.  0.
   430  4.29  0.  0.
   431  4.30  0.  0.
   432  4.31  0.  0.
   433  4.32  0.  0.
   434  4.33  0.  0.
   435  4.34  0.  0.
   436  4.35  0.  0.
   437  4.36  0.  0.
   438  4.37  0.  0.
   439  4.38  0.  0.
   440  4.39  0.  0.
   441  4.40  0.  0.
   442  4.41  0.  0.
   443  4.42  0.  0.
   444  4.43  0.  0.
   445  4.44  0.  0.
   446  4.45  0.  0.
   447  4.46  0.  0.
   448  4.47  0.  0.
   449  4.48  0.  0.
   450  4.49  0.  0.
   451  4.50  0.  0.
   452  4.51  0.  0.
   453  4.52  0.  0.
   454  4.53  0.  0.
   455  4.54  0.  0.
   456  4.55  0.  0.
   457  4.56  0.  0.
   458  4.57  0.  0.
   459  4.58  0.  0.
   460  4.59  0.  0.
   461  4.60  0.  0.
   462  4.61  0.  0.
   463  4.62  0.  0.
   464  4.63  0.  0.
   465  4.64  0.  0.
   466  4.65  0.  0.
   467  4.66  0.  0.
   468  4.67  0.  0.
   469  4.68  0.  0.
   470  4.69  0.  0.
   471  4.70  0.  0.
   472  4.71  0.  0.
   473  4.72  0.  0.
   474  4.73  0.  0.
   475  4.74  0.  0.
   476  4.75  0.  0.
   477  4.76  0.  0.
   478  4.77  0.  0.
   479  4.78  0.  0.
   480  4.79  0.  0.
   481  4.80  0.  0.
   482  4.81  0.  0.
   483  4.82  0.  0.
   484  4.83  0.  0.
   485  4.84  0.  0.
   486  4.85  0.  0.
   487  4.86  0.  0.
   488  4.87  0.  0.
   489  4.88  0.  0.
   490  4.89  0.  0.
   491  4.90  0.  0.
   492  4.91  0.  0.
   493  4.92  0.  0.
   494  4.93  0.  0.
   495  4.94  0.  0.
   496  4.95  0.  0.
   497  4.96  0.  0.
   498  4.97  0.  0.
   499  4.98  0.  0.
   500  4.99  0.  0.
   501  5.00  0.  0.
   502  5.01  0.  0.
   503  5.02  0.  0.
   504  5.03  0.  0.
   505  5.04  0.  0.
   506  5.05  0.  0.
   507  5.06  0.  0.
   508  5.07  0.  0.
   509  5.08  0.  0.
   510  5.09  0.  0.
   511  5.10  0.  0.
   512  5.11  0.  0.
   513  5.12  0.  0.
   514  5.13  0.  0.
   515  5.14  0.  0.
   516  5.15  0.  0.
   517  5.16  0.  0.
   518  5.17  0.  0.
   519  5.18  0.  0.
   520  5.19  0.  0.
   521  5.20  0.  0.
   522  5.21  0.  0.
   523  5.22  0.  0.
   524  5.23  0.  0.
   525  5.24  0.  0.
   526  5.25  0.  0.
   527  5.26  0.  0.
   528  5.27  0.  0.
   529  5.28  0.  0.
   530  5.29  0.  0.
   531  5.30  0.  0.
   532  5.31  0.  0.
   533  5.32  0.  0.
   534  5.33  0.  0.
   535  5.34  0.  0.
   536  5.35  0.  0.
   537  5.36  0.  0.
   538  5.37  0.  0.
   539  5.38  0.  0.
   540  5.39  0.  0.
   541  5.40  0.  0.
   542  5.41  0.  0.
   543  5.42  0.  0.
   544  5.43  0.  0.
   545  5.44  0.  0.
   546  5.45  0.  0.
   547  5.46  0.  0.
   548  5.47  0.  0.
   549  5.48  0.  0.
   550  5.49  0.  0.
   551  5.50  0.  0.
   552  5.51  0.  0.
   553  5.52  0.  0.
   554  5.53  0.  0.
   555  5.54  0.  0.
   556  5.55  0.  0.
   557  5.56  0.  0.
   558  5.57  0.  0.
   559  5.58  0.  0.
   560  5.59  0.  0.
   561  5.60  0.  0.
   562  5.61  0.  0.
   563  5.62  0.  0.
   564  5.63  0.  0.
   565  5.64  0.  0.
   566  5.65  0.  0.
   567  5.66  0.  0.
   568  5.67  0.  0.
   569  5.68  0.  0.
   570  5.69  0.  0.
   571  5.70  0.  0.
   572  5.71  0.  0.
   573  5.72  0.  0.
   574  5.73  0.  0.
   575  5.74  0.  0.
   576  5.75  0.  0.
   577  5.76  0.  0.
   578  5.77  0.  0.
   579  5.78  0.  0.
   580  5.79  0.  0.
   581  5.80  0.  0.
   582  5.81  0.  0.
   583  5.82  0.  0.
   584  5.83  0.  0.
   585  5.84  0.  0.
   586  5.85  0.  0.
   587  5.86  0.  0.
   588  5.87  0.  0.
   589  5.88  0.  0.
   590  5.89  0.  0.
   591  5.90  0.  0.
   592  5.91  0.  0.
   593  5.92  0.  0.
   594  5.93  0.  0.
   595  5.94  0.  0.
   596  5.95  0.  0.
   597  5.96  0.  0.
   598  5.97  0.  0.
   599  5.98  0.  0.
   600  5.99  0.  0.
   1                         5.3245481645115E+00  5.1009590397340E-01  2.6767036403557E-02
     1  0.0000000000000E+00  2.1494056048899E-09 -7.8611233703119E-09  1.2025963218310E-08
     2  1.0000000000000E-02  7.3351456511015E-04 -9.8806341834730E-04  4.7506809303775E-04
     3  2.0000000000000E-02  2.9289421252513E-03 -3.9357333942975E-03  1.8782632680254E-03
     4  3.0000000000000E-02  6.5710104743826E-03 -8.7937260289639E-03  4.1439736514511E-03
     5  4.0000000000000E-02  1.1634518708492E-02 -1.5480820137059E-02  7.1642240549262E-03
     6  5.0000000000000E-02  1.8084712114039E-02 -2.3885219600434E-02  1.0790718967127E-02
     7  6.0000000000000E-02  2.5877798539407E-02 -3.3866429683172E-02  1.4837655312018E-02
     8  7.0000000000000E-02  3.4961597936879E-02 -4.5257616912004E-02  1.9085258442073E-02
     9  8.0000000000000E-02  4.5276314613242E-02 -5.7868414264699E-02  2.3283982809245E-02
    10  9.0000000000000E-02  5.6755419742102E-02 -7.1488126148288E-02  2.7159307655909E-02
    11  1.0000000000000E-01  6.9326629901875E-02 -8.5889281103039E-02  3.0417048067964E-02
    12  1.1000000000000E-01  8.2912965838232E-02 -1.0083147444016E-01  3.2749092992601E-02
    13  1.2000000000000E-01  9.7433874333673E-02 -1.1606543820250E-01  3.3839474483895E-02
    14  1.3000000000000E-01  1.1280639502083E-01 -1.3133727200473E-01  3.3370666618094E-02
    15  1.4000000000000E-01  1.2894635321695E-01 -1.4639276552491E-01  3.1030008312518E-02
    16  1.5000000000000E-01  1.4576955939742E-01 -1.6098174172787E-01  2.6516141757454E-02
    17  1.6000000000000E-01  1.6319299577369E-01 -1.7486234933245E-01  1.9545357372960E-02
    18  1.7000000000000E-01  1.8113597059934E-01 -1.8780523359991E-01  9.8577371493129E-03
    19  1.8000000000000E-01  1.9952122129487E-01 -1.9959751621443E-01 -2.7770090880356E-03
    20  1.9000000000000E-01  2.1827594825094E-01 -2.1004651782517E-01 -1.8554115568821E-02
    21  2.0000000000000E-01  2.3733276223059E-01 -2.1898316068154E-01 -3.7628835689215E-02
    22  2.1000000000000E-01  2.5663052962693E-01 -2.2626499366364E-01 -6.0112107849062E-02
    23  2.2000000000000E-01  2.7611510142398E-01 -2.3177878781349E-01 -8.6066890527111E-02
    24  2.3000000000000E-01  2.9573991353196E-01 -2.3544265712369E-01 -1.1550523481655E-01
    25  2.4000000000000E-01  3.1546644819469E-01 -2.3720766673744E-01 -1.4838615121089E-01
    26  2.5000000000000E-01  3.3526454836678E-01 -2.3705889874370E-01 -1.8461431503318E-01
    27  2.6000000000000E-01  3.5511257929718E-01 -2.3501595429240E-01 -2.2403964172701E-01
    28  2.7000000000000E-01  3.7499743399782E-01 -2.3113287967455E-01 -2.6645774947989E-01
    29  2.8000000000000E-01  3.9491438178362E-01 -2.2549751317397E-01 -3.1161131254100E-01
    30  2.9000000000000E-01  4.1486676160468E-01 -2.1823025875905E-01 -3.5919229434475E-01
    31  3.0000000000000E-01  4.3486552441241E-01 -2.0948230190084E-01 -4.0884503538138E-01
    32  3.1000000000000E-01  4.5492863127085E-01 -1.9943329183365E-01 -4.6017015688832E-01
    33  3.2000000000000E-01  4.7508031630212E-01 -1.8828852327462E-01 -5.1272922808909E-01
    34  3.3000000000000E-01  4.9535022580447E-01 -1.7627565885300E-01 -5.6605013209191E-01
    35  3.4000000000000E-01  5.1577244696588E-01 -1.6364104113609E-01 -6.1963305387941E-01
    36  3.5000000000000E-01  5.3638444148347E-01 -1.5064565005638E-01 -6.7295700326040E-01
    37  3.6000000000000E-01  5.5722590105715E-01 -1.3756076763100E-01 -7.2548677638784E-01
    38  3.7000000000000E-01  5.7833754312893E-01 -1.2466341702074E-01 -7.7668025162475E-01
    39  3.8000000000000E-01  5.9975986636319E-01 -1.1223164711669E-01 -8.2599590929382E-01
    40  3.9000000000000E-01  6.2153188618859E-01 -1.0053973689663E-01 -8.7290046028396E-01
    41  4.0000000000000E-01  6.4368987123499E-01 -8.9853395707823E-02 -9.1687646569044E-01
    42  4.1000000000000E-01  6.6626610168831E-01 -8.0425036369303E-02 -9.5742982868940E-01
    43  4.2000000000000E-01  6.8928767044739E-01 -7.2489197527883E-02 -9.9409704072081E-01
    44  4.3000000000000E-01  7.1277534750000E-01 -6.6258190045576E-02 -1.0264520667757E+00
    45  4.4000000000000E-01  7.3674252714511E-01 -6.1918039360697E-02 -1.0541127591240E+00
    46  4.5000000000000E-01  7.6119427658414E-01 -5.9624791785417E-02 -1.0767466951229E+00
    47  4.6000000000000E-01  7.8612650300210E-01 -5.9501247633338E-02 -1.0940763427249E+00
    48  4.7000000000000E-01  8.1152525457730E-01 -6.1634177981635E-02 -1.1058834668552E+00
    49  4.8000000000000E-01  8.3736616892159E-01 -6.6072074850412E-02 -1.1120127008016E+00
    50  4.9000000000000E-01  8.6361408028836E-01 -7.2823476728636E-02 -1.1123742190151E+00
    51  5.0000000000000E-01  8.9022279452538E-01 -8.1855902805887E-02 -1.1069454610611E+00
    52  5.1000000000000E-01  9.1713503822795E-01 -9.3095420109204E-02 -1.0957718706992E+00
    53  5.2000000000000E-01  9.4428258590313E-01 -1.0642685813056E-01 -1.0789666289957E+00
    54  5.3000000000000E-01  9.7158656622688E-01 -1.2169467560735E-01 -1.0567093757522E+00
    55  5.4000000000000E-01  9.9895794570456E-01 -1.3870447403626E-01 -1.0292439291411E+00
    56  5.5000000000000E-01  1.0262981852734E+00 -1.5722514241245E-01 -9.9687502903747E-01
    57  5.6000000000000E-01  1.0535000626557E+00 -1.7699160774724E-01 -9.5996414487403E-01
    58  5.7000000000000E-01  1.0804486506254E+00 -1.9770815628050E-01 -9.1892440370392E-01
    59  5.8000000000000E-01  1.1070224388315E+00 -2.1905228112048E-01 -8.7421470828198E-01
    60  5.9000000000000E-01  1.1330945844647E+00 -2.4067900345590E-01 -8.2633312816133E-01
    61  6.0000000000000E-01  1.1585342749027E+00 -2.6222560663186E-01 -7.7580965882932E-01
    62  6.1000000000000E-01  1.1832081835517E+00 -2.8331671538569E-01 -7.2319845458490E-01
    63  6.2000000000000E-01  1.2069819984558E+00 -3.0356964651796E-01 -6.6906965001075E-01
    64  6.3000000000000E-01  1.2297220018914E+00 -3.2259995232528E-01 -6.1400089236495E-01
    65  6.4000000000000E-01  1.2512966781341E+00 -3.4002707433191E-01 -5.5856871288088E-01
    66  6.5000000000000E-01  1.2715783258847E+00 -3.5548002229254E-01 -5.0333986871337E-01
    67  6.6000000000000E-01  1.2904446515015E+00 -3.6860299214944E-01 -4.4886278903504E-01
    68  6.7000000000000E-01  1.3077803191960E+00 -3.7906083664407E-01 -3.9565925851783E-01
    69  6.8000000000000E-01  1.3234784347264E+00 -3.8654430361683E-01 -3.4421646912227E-01
    70  6.9000000000000E-01  1.3374419398613E+00 -3.9077495967040E-01 -2.9497956677224E-01
    71  7.0000000000000E-01  1.3495848959715E+00 -3.9150972079392E-01 -2.4834481316695E-01
    72  7.1000000000000E-01  1.3598336365353E+00 -3.8854491669731E-01 -2.0465347474991E-01
    73  7.2000000000000E-01  1.3681277700867E+00 -3.8171982192261E-01 -1.6418654082539E-01
    74  7.3000000000000E-01  1.3744210171822E+00 -3.7091959419327E-01 -1.2716036112093E-01
    75  7.4000000000000E-01  1.3786818672668E+00 -3.5607756883470E-01 -9.3723279902792E-02
    76  7.5000000000000E-01  1.3808940438698E+00 -3.3717686732819E-01 -6.3953329243641E-02
    77  7.6000000000000E-01  1.3810567693048E+00 -3.1425128801542E-01 -3.7857028429806E-02
    78  7.7000000000000E-01  1.3791848229509E+00 -2.8738545750899E-01 -1.5369319999490E-02