Co    ONCVPSP-4.0.1  r_core=   1.20688   1.20688   1.55160
     27.0000     17.0000      240309    zatom,zion,pspd
     8      11   2     4   600     0    pspcod,pspxc,lmax,lloc,mmax,r2well
  5.99000000  6.00000000  0.00000000    rchrg fchrg qchrg
     2     3     2     0    nproj
     3     1           extension_switch
     4     3     0    nprojso
   0                         8.1574492250983E+00 -2.7287982960622E-01
     1  0.0000000000000E+00 -1.6630256061134E-09 -2.2537114952037E-08
     2  1.0000000000000E-02  1.0685376369787E-01  7.3595457744311E-02
     3  2.0000000000000E-02  2.1329905781185E-01  1.4631346493975E-01
     4  3.0000000000000E-02  3.1892985370688E-01  2.1729099574329E-01
     5  4.0000000000000E-02  4.2334497863309E-01  2.8569358985208E-01
     6  5.0000000000000E-02  5.2615047907454E-01  3.5072893153685E-01
     7  6.0000000000000E-02  6.2696190780086E-01  4.1165960070354E-01
     8  7.0000000000000E-02  7.2540651118967E-01  4.6781474714297E-01
     9  8.0000000000000E-02  8.2112529505062E-01  5.1860046166467E-01
    10  9.0000000000000E-02  9.1377494919768E-01  5.6350864508300E-01
    11  1.0000000000000E-01  1.0030296133448E+00  6.0212420745628E-01
    12  1.1000000000000E-01  1.0885824694958E+00  6.3413046491417E-01
    13  1.2000000000000E-01  1.1701471488076E+00  6.5931263910835E-01
    14  1.3000000000000E-01  1.2474589438792E+00  6.7755940399408E-01
    15  1.4000000000000E-01  1.3202758204840E+00  6.8886246545792E-01
    16  1.5000000000000E-01  1.3883792258787E+00  6.9331420038765E-01
    17  1.6000000000000E-01  1.4515746939097E+00  6.9110342226542E-01
    18  1.7000000000000E-01  1.5096922501465E+00  6.8250937939427E-01
    19  1.8000000000000E-01  1.5625866231444E+00  6.6789412861295E-01
    20  1.9000000000000E-01  1.6101372706102E+00  6.4769346102808E-01
    21  2.0000000000000E-01  1.6522482316781E+00  6.2240658617699E-01
    22  2.1000000000000E-01  1.6888478186392E+00  5.9258480648290E-01
    23  2.2000000000000E-01  1.7198881632775E+00  5.5881943432774E-01
    24  2.3000000000000E-01  1.7453446344111E+00  5.2172921909496E-01
    25  2.4000000000000E-01  1.7652151442951E+00  4.8194756079319E-01
    26  2.5000000000000E-01  1.7795193622014E+00  4.4010979014814E-01
    27  2.6000000000000E-01  1.7882978537323E+00  3.9684079225367E-01
    28  2.7000000000000E-01  1.7916111642654E+00  3.5274324204965E-01
    29  2.8000000000000E-01  1.7895388643650E+00  3.0838670520993E-01
    30  2.9000000000000E-01  1.7821785740511E+00  2.6429783777526E-01
    31  3.0000000000000E-01  1.7696449815286E+00  2.2095189246901E-01
    32  3.1000000000000E-01  1.7520688703635E+00  1.7876570961518E-01
    33  3.2000000000000E-01  1.7295961672083E+00  1.3809233656854E-01
    34  3.3000000000000E-01  1.7023870200630E+00  9.9217382283927E-02
    35  3.4000000000000E-01  1.6706149147668E+00  6.2357173889832E-02
    36  3.5000000000000E-01  1.6344658350077E+00  2.7658740741508E-02
    37  3.6000000000000E-01  1.5941374686672E+00 -4.7983906947213E-03
    38  3.7000000000000E-01  1.5498384608534E+00 -3.4998649719846E-02
    39  3.8000000000000E-01  1.5017877115694E+00 -6.2985221481306E-02
    40  3.9000000000000E-01  1.4502137136839E+00 -8.8853332537812E-02
    41  4.0000000000000E-01  1.3953539247698E+00 -1.1274219617267E-01
    42  4.1000000000000E-01  1.3374541645059E+00 -1.3482582401963E-01
    43  4.2000000000000E-01  1.2767680277516E+00 -1.5530293844673E-01
    44  4.3000000000000E-01  1.2135563021372E+00 -1.7438624295512E-01
    45  4.4000000000000E-01  1.1480863781076E+00 -1.9229132504319E-01
    46  4.5000000000000E-01  1.0806316388364E+00 -2.0922547712702E-01
    47  4.6000000000000E-01  1.0114708173064E+00 -2.2537672589199E-01
    48  4.7000000000000E-01  9.4088730815037E-01 -2.4090335870156E-01
    49  4.8000000000000E-01  8.6916842254770E-01 -2.5592422737774E-01
    50  4.9000000000000E-01  7.9660457558312E-01 -2.7051009489728E-01
    51  5.0000000000000E-01  7.2348839696168E-01 -2.8467626956979E-01
    52  5.1000000000000E-01  6.5011375781710E-01 -2.9837674446172E-01
    53  5.2000000000000E-01  5.7677470850945E-01 -3.1150002771792E-01
    54  5.3000000000000E-01  5.0376432473666E-01 -3.2386681264940E-01
    55  5.4000000000000E-01  4.3137346193047E-01 -3.3522959574324E-01
    56  5.5000000000000E-01  3.5988942071279E-01 -3.4527430694710E-01
    57  5.6000000000000E-01  2.8959452908877E-01 -3.5362397060582E-01
    58  5.7000000000000E-01  2.2076464998131E-01 -3.5984436825132E-01
    59  5.8000000000000E-01  1.5366762559920E-01 -3.6345162708642E-01
    60  5.9000000000000E-01  8.8561672907529E-02 -3.6392161148773E-01
    61  6.0000000000000E-01  2.5693747065132E-02 -3.6070095021169E-01
    62  6.1000000000000E-01 -3.4702107956330E-02 -3.5321949021915E-01
    63  6.2000000000000E-01 -9.2406400317104E-02 -3.4090393009741E-01
    64  6.3000000000000E-01 -1.4721579988973E-01 -3.2319235283195E-01
    65  6.4000000000000E-01 -1.9894469229117E-01 -2.9954934996949E-01
    66  6.5000000000000E-01 -2.4742665238705E-01 -2.6948140770359E-01
    67  6.6000000000000E-01 -2.9251581198667E-01 -2.3255221067577E-01
    68  6.7000000000000E-01 -3.3408809666372E-01 -1.8839751175355E-01
    69  6.8000000000000E-01 -3.7204230738472E-01 -1.3673921600258E-01
    70  6.9000000000000E-01 -4.0630102390795E-01 -7.7398334650612E-02
    71  7.0000000000000E-01 -4.3681130871942E-01 -1.0306480010473E-02
    72  7.1000000000000E-01 -4.6354519258073E-01  6.4484405098723E-02
    73  7.2000000000000E-01 -4.8649992554193E-01  1.4679436026956E-01
    74  7.3000000000000E-01 -5.0569798048076E-01  2.3631000343683E-01
    75  7.4000000000000E-01 -5.2118679981307E-01  3.3258160842916E-01
    76  7.5000000000000E-01 -5.3303827991758E-01  4.3502281558322E-01
    77  7.6000000000000E-01 -5.4134799196071E-01  5.4291307548989E-01
    78  7.7000000000000E-01 -5.4623414211758E-01  6.5540287137126E-01
    79  7.8000000000000E-01 -5.4783627858244E-01  7.7152170891400E-01
    80  7.9000000000000E-01 -5.4631375715904E-01  8.9018880475334E-01
    81  8.0000000000000E-01 -5.4184398153288E-01  1.0102263474023E+00
    82  8.1000000000000E-01 -5.3462043846437E-01  1.1303751484542E+00
    83  8.2000000000000E-01 -5.2485055201968E-01  1.2493124485370E+00
    84  8.3000000000000E-01 -5.1275338449163E-01  1.3656715929240E+00
    85  8.4000000000000E-01 -4.9855721477972E-01  1.4780632469896E+00
    86  8.5000000000000E-01 -4.8249702762570E-01  1.5850977828472E+00
    87  8.6000000000000E-01 -4.6481194917799E-01  1.6854084364214E+00
    88  8.7000000000000E-01 -4.4574266583213E-01  1.7776748096474E+00
    89  8.8000000000000E-01 -4.2552886412493E-01  1.8606462760959E+00
    90  8.9000000000000E-01 -4.0440672961889E-01  1.9331648405395E+00
    91  9.0000000000000E-01 -3.8260654218419E-01  1.9941870041211E+00
    92  9.1000000000000E-01 -3.6035040386647E-01  2.0428041969516E+00
    93  9.2000000000000E-01 -3.3785013363070E-01  2.0782613590970E+00
    94  9.3000000000000E-01 -3.1530536071982E-01  2.0999732787502E+00
    95  9.4000000000000E-01 -2.9290184519935E-01  2.1075383324972E+00
    96  9.5000000000000E-01 -2.7081005052728E-01  2.1007493163565E+00
    97  9.6000000000000E-01 -2.4918398875456E-01  2.0796011069331E+00
    98  9.7000000000000E-01 -2.2816035429892E-01  2.0442949486606E+00
    99  9.8000000000000E-01 -2.0785795722827E-01  1.9952392246283E+00
   100  9.9000000000000E-01 -1.8837746172597E-01  1.9330466337910E+00
   101  1.0000000000000E+00 -1.6980142999082E-01  1.8585277651269E+00
   102  1.0100000000000E+00 -1.5219466634824E-01  1.7726811282480E+00
   103  1.0200000000000E+00 -1.3560485091892E-01  1.6766797687221E+00
   104  1.0300000000000E+00 -1.2006344691027E-01  1.5718546635974E+00
   105  1.0400000000000E+00 -1.0558686056938E-01  1.4596751569085E+00
   106  1.0500000000000E+00 -9.2177828158741E-02  1.3417267550501E+00
   107  1.0600000000000E+00 -7.9827000076277E-02  1.2196866566281E+00
   108  1.0700000000000E+00 -6.8514688535087E-02  1.0952974394670E+00
   109  1.0800000000000E+00 -5.8212742103427E-02  9.7033936806666E-01
   110  1.0900000000000E+00 -4.8886507960866E-02  8.4660181690668E-01
   111  1.1000000000000E+00 -4.0496840993276E-02  7.2585432801251E-01
   112  1.1100000000000E+00 -3.3002117868802E-02  6.0981783455159E-01
   113  1.1200000000000E+00 -2.6360214030149E-02  5.0013658561277E-01
   114  1.1300000000000E+00 -2.0530402066172E-02  3.9835130092092E-01
   115  1.1400000000000E+00 -1.5475130232394E-02  3.0587404592678E-01
   116  1.1500000000000E+00 -1.1163155727689E-02  2.2395442335997E-01
   117  1.1600000000000E+00 -7.5811538142864E-03  1.5357909194797E-01
   118  1.1700000000000E+00 -4.7042472242722E-03  9.5681137093747E-02
   119  1.1800000000000E+00 -2.5127953976768E-03  5.1023763101197E-02
   120  1.1900000000000E+00 -9.9959138780884E-04  2.0150895919960E-02
   121  1.2000000000000E+00 -1.6863962144209E-04  3.3569671819093E-03
   122  1.2100000000000E+00  9.0731097771786E-06 -1.7855076152735E-04
   123  1.2200000000000E+00 -1.3916474575340E-06  2.7518177798205E-05
   124  1.23  0.  0.
   125  1.24  0.  0.
   126  1.25  0.  0.
   127  1.26  0.  0.
   128  1.27  0.  0.
   129  1.28  0.  0.
   130  1.29  0.  0.
   131  1.30  0.  0.
   132  1.31  0.  0.
   133  1.32  0.  0.
   134  1.33  0.  0.
   135  1.34  0.  0.
   136  1.35  0.  0.
   137  1.36  0.  0.
   138  1.37  0.  0.
   139  1.38  0.  0.
   140  1.39  0.  0.
   141  1.40  0.  0.
   142  1.41  0.  0.
   143  1.42  0.  0.
   144  1.43  0.  0.
   145  1.44  0.  0.
   146  1.45  0.  0.
   147  1.46  0.  0.
   148  1.47  0.  0.
   149  1.48  0.  0.
   150  1.49  0.  0.
   151  1.50  0.  0.
   152  1.51  0.  0.
   153  1.52  0.  0.
   154  1.53  0.  0.
   155  1.54  0.  0.
   156  1.55  0.  0.
   157  1.56  0.  0.
   158  1.57  0.  0.
   159  1.58  0.  0.
   160  1.59  0.  0.
   161  1.60  0.  0.
   162  1.61  0.  0.
   163  1.62  0.  0.
   164  1.63  0.  0.
   165  1.64  0.  0.
   166  1.65  0.  0.
   167  1.66  0.  0.
   168  1.67  0.  0.
   169  1.68  0.  0.
   170  1.69  0.  0.
   171  1.70  0.  0.
   172  1.71  0.  0.
   173  1.72  0.  0.
   174  1.73  0.  0.
   175  1.74  0.  0.
   176  1.75  0.  0.
   177  1.76  0.  0.
   178  1.77  0.  0.
   179  1.78  0.  0.
   180  1.79  0.  0.
   181  1.80  0.  0.
   182  1.81  0.  0.
   183  1.82  0.  0.
   184  1.83  0.  0.
   185  1.84  0.  0.
   186  1.85  0.  0.
   187  1.86  0.  0.
   188  1.87  0.  0.
   189  1.88  0.  0.
   190  1.89  0.  0.
   191  1.90  0.  0.
   192  1.91  0.  0.
   193  1.92  0.  0.
   194  1.93  0.  0.
   195  1.94  0.  0.
   196  1.95  0.  0.
   197  1.96  0.  0.
   198  1.97  0.  0.
   199  1.98  0.  0.
   200  1.99  0.  0.
   201  2.00  0.  0.
   202  2.01  0.  0.
   203  2.02  0.  0.
   204  2.03  0.  0.
   205  2.04  0.  0.
   206  2.05  0.  0.
   207  2.06  0.  0.
   208  2.07  0.  0.
   209  2.08  0.  0.
   210  2.09  0.  0.
   211  2.10  0.  0.
   212  2.11  0.  0.
   213  2.12  0.  0.
   214  2.13  0.  0.
   215  2.14  0.  0.
   216  2.15  0.  0.
   217  2.16  0.  0.
   218  2.17  0.  0.
   219  2.18  0.  0.
   220  2.19  0.  0.
   221  2.20  0.  0.
   222  2.21  0.  0.
   223  2.22  0.  0.
   224  2.23  0.  0.
   225  2.24  0.  0.
   226  2.25  0.  0.
   227  2.26  0.  0.
   228  2.27  0.  0.
   229  2.28  0.  0.
   230  2.29  0.  0.
   231  2.30  0.  0.
   232  2.31  0.  0.
   233  2.32  0.  0.
   234  2.33  0.  0.
   235  2.34  0.  0.
   236  2.35  0.  0.
   237  2.36  0.  0.
   238  2.37  0.  0.
   239  2.38  0.  0.
   240  2.39  0.  0.
   241  2.40  0.  0.
   242  2.41  0.  0.
   243  2.42  0.  0.
   244  2.43  0.  0.
   245  2.44  0.  0.
   246  2.45  0.  0.
   247  2.46  0.  0.
   248  2.47  0.  0.
   249  2.48  0.  0.
   250  2.49  0.  0.
   251  2.50  0.  0.
   252  2.51  0.  0.
   253  2.52  0.  0.
   254  2.53  0.  0.
   255  2.54  0.  0.
   256  2.55  0.  0.
   257  2.56  0.  0.
   258  2.57  0.  0.
   259  2.58  0.  0.
   260  2.59  0.  0.
   261  2.60  0.  0.
   262  2.61  0.  0.
   263  2.62  0.  0.
   264  2.63  0.  0.
   265  2.64  0.  0.
   266  2.65  0.  0.
   267  2.66  0.  0.
   268  2.67  0.  0.
   269  2.68  0.  0.
   270  2.69  0.  0.
   271  2.70  0.  0.
   272  2.71  0.  0.
   273  2.72  0.  0.
   274  2.73  0.  0.
   275  2.74  0.  0.
   276  2.75  0.  0.
   277  2.76  0.  0.
   278  2.77  0.  0.
   279  2.78  0.  0.
   280  2.79  0.  0.
   281  2.80  0.  0.
   282  2.81  0.  0.
   283  2.82  0.  0.
   284  2.83  0.  0.
   285  2.84  0.  0.
   286  2.85  0.  0.
   287  2.86  0.  0.
   288  2.87  0.  0.
   289  2.88  0.  0.
   290  2.89  0.  0.
   291  2.90  0.  0.
   292  2.91  0.  0.
   293  2.92  0.  0.
   294  2.93  0.  0.
   295  2.94  0.  0.
   296  2.95  0.  0.
   297  2.96  0.  0.
   298  2.97  0.  0.
   299  2.98  0.  0.
   300  2.99  0.  0.
   301  3.00  0.  0.
   302  3.01  0.  0.
   303  3.02  0.  0.
   304  3.03  0.  0.
   305  3.04  0.  0.
   306  3.05  0.  0.
   307  3.06  0.  0.
   308  3.07  0.  0.
   309  3.08  0.  0.
   310  3.09  0.  0.
   311  3.10  0.  0.
   312  3.11  0.  0.
   313  3.12  0.  0.
   314  3.13  0.  0.
   315  3.14  0.  0.
   316  3.15  0.  0.
   317  3.16  0.  0.
   318  3.17  0.  0.
   319  3.18  0.  0.
   320  3.19  0.  0.
   321  3.20  0.  0.
   322  3.21  0.  0.
   323  3.22  0.  0.
   324  3.23  0.  0.
   325  3.24  0.  0.
   326  3.25  0.  0.
   327  3.26  0.  0.
   328  3.27  0.  0.
   329  3.28  0.  0.
   330  3.29  0.  0.
   331  3.30  0.  0.
   332  3.31  0.  0.
   333  3.32  0.  0.
   334  3.33  0.  0.
   335  3.34  0.  0.
   336  3.35  0.  0.
   337  3.36  0.  0.
   338  3.37  0.  0.
   339  3.38  0.  0.
   340  3.39  0.  0.
   341  3.40  0.  0.
   342  3.41  0.  0.
   343  3.42  0.  0.
   344  3.43  0.  0.
   345  3.44  0.  0.
   346  3.45  0.  0.
   347  3.46  0.  0.
   348  3.47  0.  0.
   349  3.48  0.  0.
   350  3.49  0.  0.
   351  3.50  0.  0.
   352  3.51  0.  0.
   353  3.52  0.  0.
   354  3.53  0.  0.
   355  3.54  0.  0.
   356  3.55  0.  0.
   357  3.56  0.  0.
   358  3.57  0.  0.
   359  3.58  0.  0.
   360  3.59  0.  0.
   361  3.60  0.  0.
   362  3.61  0.  0.
   363  3.62  0.  0.
   364  3.63  0.  0.
   365  3.64  0.  0.
   366  3.65  0.  0.
   367  3.66  0.  0.
   368  3.67  0.  0.
   369  3.68  0.  0.
   370  3.69  0.  0.
   371  3.70  0.  0.
   372  3.71  0.  0.
   373  3.72  0.  0.
   374  3.73  0.  0.
   375  3.74  0.  0.
   376  3.75  0.  0.
   377  3.76  0.  0.
   378  3.77  0.  0.
   379  3.78  0.  0.
   380  3.79  0.  0.
   381  3.80  0.  0.
   382  3.81  0.  0.
   383  3.82  0.  0.
   384  3.83  0.  0.
   385  3.84  0.  0.
   386  3.85  0.  0.
   387  3.86  0.  0.
   388  3.87  0.  0.
   389  3.88  0.  0.
   390  3.89  0.  0.
   391  3.90  0.  0.
   392  3.91  0.  0.
   393  3.92  0.  0.
   394  3.93  0.  0.
   395  3.94  0.  0.
   396  3.95  0.  0.
   397  3.96  0.  0.
   398  3.97  0.  0.
   399  3.98  0.  0.
   400  3.99  0.  0.
   401  4.00  0.  0.
   402  4.01  0.  0.
   403  4.02  0.  0.
   404  4.03  0.  0.
   405  4.04  0.  0.
   406  4.05  0.  0.
   407  4.06  0.  0.
   408  4.07  0.  0.
   409  4.08  0.  0.
   410  4.09  0.  0.
   411  4.10  0.  0.
   412  4.11  0.  0.
   413  4.12  0.  0.
   414  4.13  0.  0.
   415  4.14  0.  0.
   416  4.15  0.  0.
   417  4.16  0.  0.
   418  4.17  0.  0.
   419  4.18  0.  0.
   420  4.19  0.  0.
   421  4.20  0.  0.
   422  4.21  0.  0.
   423  4.22  0.  0.
   424  4.23  0.  0.
   425  4.24  0.  0.
   426  4.25  0.  0.
   427  4.26  0.  0.
   428  4.27  0.  0.
   429  4.28  0.  0.
   430  4.29  0.  0.
   431  4.30  0.  0.
   432  4.31  0.  0.
   433  4.32  0.  0.
   434  4.33  0.  0.
   435  4.34  0.  0.
   436  4.35  0.  0.
   437  4.36  0.  0.
   438  4.37  0.  0.
   439  4.38  0.  0.
   440  4.39  0.  0.
   441  4.40  0.  0.
   442  4.41  0.  0.
   443  4.42  0.  0.
   444  4.43  0.  0.
   445  4.44  0.  0.
   446  4.45  0.  0.
   447  4.46  0.  0.
   448  4.47  0.  0.
   449  4.48  0.  0.
   450  4.49  0.  0.
   451  4.50  0.  0.
   452  4.51  0.  0.
   453  4.52  0.  0.
   454  4.53  0.  0.
   455  4.54  0.  0.
   456  4.55  0.  0.
   457  4.56  0.  0.
   458  4.57  0.  0.
   459  4.58  0.  0.
   460  4.59  0.  0.
   461  4.60  0.  0.
   462  4.61  0.  0.
   463  4.62  0.  0.
   464  4.63  0.  0.
   465  4.64  0.  0.
   466  4.65  0.  0.
   467  4.66  0.  0.
   468  4.67  0.  0.
   469  4.68  0.  0.
   470  4.69  0.  0.
   471  4.70  0.  0.
   472  4.71  0.  0.
   473  4.72  0.  0.
   474  4.73  0.  0.
   475  4.74  0.  0.
   476  4.75  0.  0.
   477  4.76  0.  0.
   478  4.77  0.  0.
   479  4.78  0.  0.
   480  4.79  0.  0.
   481  4.80  0.  0.
   482  4.81  0.  0.
   483  4.82  0.  0.
   484  4.83  0.  0.
   485  4.84  0.  0.
   486  4.85  0.  0.
   487  4.86  0.  0.
   488  4.87  0.  0.
   489  4.88  0.  0.
   490  4.89  0.  0.
   491  4.90  0.  0.
   492  4.91  0.  0.
   493  4.92  0.  0.
   494  4.93  0.  0.
   495  4.94  0.  0.
   496  4.95  0.  0.
   497  4.96  0.  0.
   498  4.97  0.  0.
   499  4.98  0.  0.
   500  4.99  0.  0.
   501  5.00  0.  0.
   502  5.01  0.  0.
   503  5.02  0.  0.
   504  5.03  0.  0.
   505  5.04  0.  0.
   506  5.05  0.  0.
   507  5.06  0.  0.
   508  5.07  0.  0.
   509  5.08  0.  0.
   510  5.09  0.  0.
   511  5.10  0.  0.
   512  5.11  0.  0.
   513  5.12  0.  0.
   514  5.13  0.  0.
   515  5.14  0.  0.
   516  5.15  0.  0.
   517  5.16  0.  0.
   518  5.17  0.  0.
   519  5.18  0.  0.
   520  5.19  0.  0.
   521  5.20  0.  0.
   522  5.21  0.  0.
   523  5.22  0.  0.
   524  5.23  0.  0.
   525  5.24  0.  0.
   526  5.25  0.  0.
   527  5.26  0.  0.
   528  5.27  0.  0.
   529  5.28  0.  0.
   530  5.29  0.  0.
   531  5.30  0.  0.
   532  5.31  0.  0.
   533  5.32  0.  0.
   534  5.33  0.  0.
   535  5.34  0.  0.
   536  5.35  0.  0.
   537  5.36  0.  0.
   538  5.37  0.  0.
   539  5.38  0.  0.
   540  5.39  0.  0.
   541  5.40  0.  0.
   542  5.41  0.  0.
   543  5.42  0.  0.
   544  5.43  0.  0.
   545  5.44  0.  0.
   546  5.45  0.  0.
   547  5.46  0.  0.
   548  5.47  0.  0.
   549  5.48  0.  0.
   550  5.49  0.  0.
   551  5.50  0.  0.
   552  5.51  0.  0.
   553  5.52  0.  0.
   554  5.53  0.  0.
   555  5.54  0.  0.
   556  5.55  0.  0.
   557  5.56  0.  0.
   558  5.57  0.  0.
   559  5.58  0.  0.
   560  5.59  0.  0.
   561  5.60  0.  0.
   562  5.61  0.  0.
   563  5.62  0.  0.
   564  5.63  0.  0.
   565  5.64  0.  0.
   566  5.65  0.  0.
   567  5.66  0.  0.
   568  5.67  0.  0.
   569  5.68  0.  0.
   570  5.69  0.  0.
   571  5.70  0.  0.
   572  5.71  0.  0.
   573  5.72  0.  0.
   574  5.73  0.  0.
   575  5.74  0.  0.
   576  5.75  0.  0.
   577  5.76  0.  0.
   578  5.77  0.  0.
   579  5.78  0.  0.
   580  5.79  0.  0.
   581  5.80  0.  0.
   582  5.81  0.  0.
   583  5.82  0.  0.
   584  5.83  0.  0.
   585  5.84  0.  0.
   586  5.85  0.  0.
   587  5.86  0.  0.
   588  5.87  0.  0.
   589  5.88  0.  0.
   590  5.89  0.  0.
   591  5.90  0.  0.
   592  5.91  0.  0.
   593  5.92  0.  0.
   594  5.93  0.  0.
   595  5.94  0.  0.
   596  5.95  0.  0.
   597  5.96  0.  0.
   598  5.97  0.  0.
   599  5.98  0.  0.
   600  5.99  0.  0.
   1                        -2.1651613833121E+00 -8.6989256736841E-02 -9.1242246497233E-03
     1  0.0000000000000E+00 -2.1999811000706E-09  1.7805880597743E-07 -3.1511637466064E-09
     2  1.0000000000000E-02  1.4670070000919E-03  8.8177582503628E-03 -1.7104803857750E-03
     3  2.0000000000000E-02  5.8643767179071E-03  3.5069826065411E-02 -6.8319904384976E-03
     4  3.0000000000000E-02  1.3181119599785E-02  7.8157201777653E-02 -1.5334809436282E-02
     5  4.0000000000000E-02  2.3398802083915E-02  1.3709683698646E-01 -2.7169642615154E-02
     6  5.0000000000000E-02  3.6491374942255E-02  2.1054418774543E-01 -4.2267973190946E-02
     7  6.0000000000000E-02  5.2424942430106E-02  2.9682403486693E-01 -6.0542540206265E-02
     8  7.0000000000000E-02  7.1157481414128E-02  3.9396884368720E-01 -8.1887927907654E-02
     9  8.0000000000000E-02  9.2638521849571E-02  4.9976375557685E-01 -1.0618124920692E-01
    10  9.0000000000000E-02  1.1680880187672E-01  6.1179714722740E-01 -1.3328290332280E-01
    11  1.0000000000000E-01  1.4359991235419E-01  7.2751556304356E-01 -1.6303738599240E-01
    12  1.1000000000000E-01  1.7293394680000E-01  8.4428172395847E-01 -1.9527412979801E-01
    13  1.2000000000000E-01  2.0472317343878E-01  9.5943424512203E-01 -2.2980835221681E-01
    14  1.3000000000000E-01  2.3886974633193E-01  1.0703476568755E+00 -2.6644188997421E-01
    15  1.4000000000000E-01  2.7526547238873E-01  1.1744913191392E+00 -3.0496400018852E-01
    16  1.5000000000000E-01  3.1379165041895E-01  1.2694858488831E+00 -3.4515211155056E-01
    17  1.6000000000000E-01  3.5431899730679E-01  1.3531557430216E+00 -3.8677251238118E-01
    18  1.7000000000000E-01  3.9670767488382E-01  1.4235769733204E+00 -4.2958096666865E-01
    19  1.8000000000000E-01  4.4080742919122E-01  1.4791184534775E+00 -4.7332325406218E-01
    20  1.9000000000000E-01  4.8645785159283E-01  1.5184764284111E+00 -5.1773563508372E-01
    21  2.0000000000000E-01  5.3348876868391E-01  1.5407010083493E+00 -5.6254524836752E-01
    22  2.1000000000000E-01  5.8172076519734E-01  1.5452142613684E+00 -6.0747045237447E-01
    23  2.2000000000000E-01  6.3096584120527E-01  1.5318194829463E+00 -6.5222112952704E-01
    24  2.3000000000000E-01  6.8102820192201E-01  1.5007014749030E+00 -6.9649897592525E-01
    25  2.4000000000000E-01  7.3170517540647E-01  1.4524178836049E+00 -7.3999780448392E-01
    26  2.5000000000000E-01  7.8278825051445E-01  1.3878818632241E+00 -7.8240389333143E-01
    27  2.6000000000000E-01  8.3406422463550E-01  1.3083365389156E+00 -8.2339641443360E-01
    28  2.7000000000000E-01  8.8531644813719E-01  1.2153219419146E+00 -8.6264797949846E-01
    29  2.8000000000000E-01  9.3632615009581E-01  1.1106352689579E+00 -8.9982534115220E-01
    30  2.9000000000000E-01  9.8687382787752E-01  9.9628547768946E-01 -9.3459028705139E-01
    31  3.0000000000000E-01  1.0367406814974E+00  8.7444336393310E-01 -9.6660076292222E-01
    32  3.1000000000000E-01  1.0857100724699E+00  7.4738837262056E-01 -9.9551225748996E-01
    33  3.2000000000000E-01  1.1335689861017E+00  6.1745346913949E-01 -1.0209794778501E+00
    34  3.3000000000000E-01  1.1801094758919E+00  4.8696944008790E-01 -1.0426583381012E+00
    35  3.4000000000000E-01  1.2251300688968E+00  3.5821000082046E-01 -1.0602082770847E+00
    36  3.5000000000000E-01  1.2684371115942E+00  2.3333906154989E-01 -1.0732949129712E+00
    37  3.6000000000000E-01  1.3098460369157E+00  1.1436144472333E-01 -1.0815930333645E+00
    38  3.7000000000000E-01  1.3491825346952E+00  3.0782553804430E-03 -1.0847899097576E+00
    39  3.8000000000000E-01  1.3862836097536E+00 -9.8952014564996E-02 -1.0825889147691E+00
    40  3.9000000000000E-01  1.4209985141650E+00 -1.9044571471855E-01 -1.0747134099069E+00
    41  4.0000000000000E-01  1.4531895428697E+00 -2.7041883456550E-01 -1.0609108608602E+00
    42  4.1000000000000E-01  1.4827326846467E+00 -3.3820379871275E-01 -1.0409571268524E+00
    43  4.2000000000000E-01  1.5095181234645E+00 -3.9345788979516E-01 -1.0146608606417E+00
    44  4.3000000000000E-01  1.5334505883175E+00 -4.3616314288341E-01 -9.8186794663608E-01
    45  4.4000000000000E-01  1.5544495527513E+00 -4.6661777216944E-01 -9.4246589660141E-01
    46  4.5000000000000E-01  1.5724492883028E+00 -4.8541940612056E-01 -8.9638811580675E-01
    47  4.6000000000000E-01  1.5873987789529E+00 -4.9344061580387E-01 -8.4361794745199E-01
    48  4.7000000000000E-01  1.5992615063483E+00 -4.9179741743084E-01 -7.8419240006030E-01
    49  4.8000000000000E-01  1.6080151179081E+00 -4.8181160943689E-01 -7.1820546137702E-01
    50  4.9000000000000E-01  1.6136509919529E+00 -4.6496796202602E-01 -6.4581090330540E-01
    51  5.0000000000000E-01  1.6161737156095E+00 -4.4286740906724E-01 -5.6722448567660E-01
    52  5.1000000000000E-01  1.6156004924220E+00 -4.1717749513092E-01 -4.8272547217553E-01
    53  5.2000000000000E-01  1.6119604973079E+00 -3.8958140162201E-01 -3.9265737954824E-01
    54  5.3000000000000E-01  1.6052941967171E+00 -3.6172691348239E-01 -2.9742789121974E-01
    55  5.4000000000000E-01  1.5956526515794E+00 -3.3517669076511E-01 -1.9750787853104E-01
    56  5.5000000000000E-01  1.5830968198707E+00 -3.1136117728288E-01 -9.3429486780332E-02
    57  5.6000000000000E-01  1.5676968744060E+00 -2.9153541221688E-01  1.4216741095444E-02
    58  5.7000000000000E-01  1.5495315498222E+00 -2.7674091153458E-01  1.2478571333052E-01
    59  5.8000000000000E-01  1.5286875306808E+00 -2.6777365670405E-01  2.3758260265951E-01
    60  5.9000000000000E-01  1.5052588902595E+00 -2.6515907161632E-01  3.5186859735998E-01
    61  6.0000000000000E-01  1.4793465869826E+00 -2.6913468870373E-01  4.6686754407957E-01
    62  6.1000000000000E-01  1.4510580226289E+00 -2.7964100638635E-01  5.8177341743742E-01
    63  6.2000000000000E-01  1.4205066635343E+00 -2.9632082718429E-01  6.9575853284135E-01
    64  6.3000000000000E-01  1.3878117230634E+00 -3.1852714439040E-01  8.0798240132412E-01
    65  6.4000000000000E-01  1.3530979007316E+00 -3.4533942072038E-01  9.1760110890910E-01
    66  6.5000000000000E-01  1.3164951706174E+00 -3.7558788052857E-01  1.0237770884688E+00
    67  6.6000000000000E-01  1.2781386091816E+00 -4.0788522366542E-01  1.1256891395937E+00
    68  6.7000000000000E-01  1.2381682503915E+00 -4.4066496935656E-01  1.2225425420164E+00
    69  6.8000000000000E-01  1.1967289542010E+00 -4.7222545777958E-01  1.3135791008794E+00
    70  6.9000000000000E-01  1.1539702730223E+00 -5.0077838005972E-01  1.3980869578790E+00
    71  7.0000000000000E-01  1.1100462998964E+00 -5.2450057835820E-01  1.4754100012285E+00
    72  7.1000000000000E-01  1.0651154816605E+00 -5.4158776011271E-01  1.5449567095612E+00
    73  7.2000000000000E-01  1.0193403805503E+00 -5.5030870701676E-01  1.6062082704017E+00
    74  7.3000000000000E-01  9.7288736837480E-01 -5.4905853192043E-01  1.6587258226524E+00
    75  7.4000000000000E-01  9.2592623865598E-01 -5.3640954647498E-01  1.7021566845546E+00
    76  7.5000000000000E-01  8.7862972391369E-01 -5.1115834910437E-01  1.7362394436185E+00
    77  7.6000000000000E-01  8.3117290757211E-01 -4.7236782592223E-01  1.7608078028758E+00
    78  7.7000000000000E-01  7.8373252271112E-01 -4.1940287469937E-01  1.7757930981049E+00
    79  7.8000000000000E-01  7.3648613302880E-01 -3.5195881129667E-01  1.7812254231369E+00
    80  7.9000000000000E-01  6.8961119484533E-01 -2.7008159557316E-01  1.7772333244651E+00
    81  8.0000000000000E-01  6.4328400267975E-01 -1.7417921544298E-01  1.7640420517572E+00
    82  8.1000000000000E-01  5.9767852477867E-01 -6.5023788586001E-02  1.7419703769366E+00
    83  8.2000000000000E-01  5.5296513887096E-01  5.6255824084638E-02  1.7114260207898E+00
    84  8.3000000000000E-01  5.0930928226353E-01  1.8819085655768E-01  1.6728997519944E+00
    85  8.4000000000000E-01  4.6687003407575E-01  3.2899864639309E-01  1.6269582485028E+00
    86  8.5000000000000E-01  4.2579865083259E-01  4.7661729271883E-01  1.5742358348509E+00
    87  8.6000000000000E-01  3.8623707969937E-01  6.2874821261004E-01  1.5154252306584E+00
    88  8.7000000000000E-01  3.4831647625227E-01  7.8290563149119E-01  1.4512674648688E+00
    89  8.8000000000000E-01  3.1215575575384E-01  9.3647185167849E-01  1.3825411267316E+00
    90  8.9000000000000E-01  2.7786020836956E-01  1.0867569786037E+00  1.3100511377692E+00
    91  9.0000000000000E-01  2.4552020955897E-01  1.2310616511064E+00  1.2346172386648E+00
    92  9.1000000000000E-01  2.1521005695900E-01  1.3667412241164E+00  1.1570623909746E+00
    93  9.2000000000000E-01  1.8698696441733E-01  1.4912697919842E+00  1.0782012955755E+00
    94  9.3000000000000E-01  1.6089024241958E-01  1.6023024205515E+00  9.9882922779623E-01
    95  9.4000000000000E-01  1.3694069198983E-01  1.6977339768092E+00  9.1971138321335E-01
    96  9.5000000000000E-01  1.1514023625576E-01  1.7757530066003E+00  8.4157291824768E-01
    97  9.6000000000000E-01  9.5471810296713E-02  1.8348892122566E+00  7.6508985613747E-01
    98  9.7000000000000E-01  7.7899525696247E-02  1.8740532213012E+00  6.9088101186539E-01
    99  9.8000000000000E-01  6.2369121476089E-02  1.8925675112851E+00  6.1950106952814E-01
   100  9.9000000000000E-01  4.8808707881307E-02  1.8901875608105E+00  5.5143492284747E-01
   101  1.0000000000000E+00  3.7129803925517E-02  1.8671125278932E+00  4.8709336454301E-01
   102  1.0100000000000E+00  2.7228663799252E-02  1.8239850088236E+00  4.2681018361008E-01
   103  1.0200000000000E+00  1.8987881318051E-02  1.7618796975735E+00  3.7084070177252E-01
   104  1.0300000000000E+00  1.2278255661474E-02  1.6822810414530E+00  3.1936175205956E-01
   105  1.0400000000000E+00  6.9608958680810E-03  1.5870502661395E+00  2.7247307426309E-01
   106  1.0500000000000E+00  2.8895360262560E-03  1.4783824159778E+00  2.3020007451246E-01
   107  1.0600000000000E+00 -8.6972039332592E-05  1.3587543170815E+00  1.9249786998677E-01
   108  1.0700000000000E+00 -2.1220264086905E-03  1.2308646141229E+00  1.5925651546375E-01
   109  1.0800000000000E+00 -3.3685448728313E-03  1.0975672517604E+00  1.3030728645427E-01
   110  1.0900000000000E+00 -3.9761820342460E-03  9.6179996200715E-01  1.0542987462709E-01
   111  1.1000000000000E+00 -4.0885413234165E-03  8.2650947512622E-01  8.4360335494907E-02
   112  1.1100000000000E+00 -3.8404311786633E-03  6.9457528986786E-01  6.6799616215901E-02
   113  1.1200000000000E+00 -3.3552153432971E-03  5.6873391550043E-01  5.2422483201444E-02
   114  1.1300000000000E+00 -2.7423070835042E-03  4.5150553493086E-01  4.0886665675740E-02
   115  1.1400000000000E+00 -2.0948555799499E-03  3.4512491929964E-01  3.1842023070851E-02
   116  1.1500000000000E+00 -1.4850217935746E-03  2.5137907286206E-01  2.4923992534843E-02
   117  1.1600000000000E+00 -9.4383494449914E-04  1.7084108820572E-01  1.9652963744284E-02
   118  1.1700000000000E+00 -5.1386613027485E-04  1.0487440400186E-01  1.5761753321908E-02
   119  1.1800000000000E+00 -2.2123697442348E-04  5.4627605744645E-02  1.3047795296387E-02