O     ONCVPSP-4.0.1  r_core=   1.25353   1.35491   1.25353
      8.0000      6.0000      240309    zatom,zion,pspd
     8      11   2     4   600     0    pspcod,pspxc,lmax,lloc,mmax,r2well
  5.99000000  4.00000000  0.00000000    rchrg fchrg qchrg
     2     2     1     0    nproj
     3     1           extension_switch
     3     2     0    nprojso
   0                         7.2341901699224E+00  9.9064781780932E-01
     1  0.0000000000000E+00 -2.0251462728993E-09  7.1348222885348E-09
     2  1.0000000000000E-02  1.0338400554409E-01 -4.1862930533817E-02
     3  2.0000000000000E-02  2.0631416133340E-01 -8.3086842842173E-02
     4  3.0000000000000E-02  3.0834051693403E-01 -1.2304180179229E-01
     5  4.0000000000000E-02  4.0902087283224E-01 -1.6111590055762E-01
     6  5.0000000000000E-02  5.0792453709552E-01 -1.9672393188641E-01
     7  6.0000000000000E-02  6.0463594088971E-01 -2.2931565297439E-01
     8  7.0000000000000E-02  6.9875806816377E-01 -2.5838351688359E-01
     9  8.0000000000000E-02  7.8991565683907E-01 -2.8346975058402E-01
    10  9.0000000000000E-02  8.7775813137222E-01 -3.0417266852068E-01
    11  1.0000000000000E-01  9.6196222959819E-01 -3.2015212105923E-01
    12  1.1000000000000E-01  1.0422342902971E+00 -3.3113398915800E-01
    13  1.2000000000000E-01  1.1183121719549E+00 -3.3691365004798E-01
    14  1.3000000000000E-01  1.1899667776872E+00 -3.3735835345731E-01
    15  1.4000000000000E-01  1.2570031662461E+00 -3.3240846384637E-01
    16  1.5000000000000E-01  1.3192612343964E+00 -3.2207754105948E-01
    17  1.6000000000000E-01  1.3766159616926E+00 -3.0645124955801E-01
    18  1.7000000000000E-01  1.4289772147548E+00 -2.8568510476548E-01
    19  1.8000000000000E-01  1.4762891144749E+00 -2.6000108378876E-01
    20  1.9000000000000E-01  1.5185289760935E+00 -2.2968314662410E-01
    21  2.0000000000000E-01  1.5557058387133E+00 -1.9507173263236E-01
    22  2.1000000000000E-01  1.5878586074270E+00 -1.5655731527845E-01
    23  2.2000000000000E-01  1.6150538377647E+00 -1.1457311556709E-01
    24  2.3000000000000E-01  1.6373831984619E+00 -6.9587090952451E-02
    25  2.4000000000000E-01  1.6549606545222E+00 -2.2093331431756E-02
    26  2.5000000000000E-01  1.6679194180483E+00  2.7396992264823E-02
    27  2.6000000000000E-01  1.6764087192373E+00  7.8364972313354E-02
    28  2.7000000000000E-01  1.6805904541391E+00  1.3029343435723E-01
    29  2.8000000000000E-01  1.6806357691533E+00  1.8267636384894E-01
    30  2.9000000000000E-01  1.6767216446692E+00  2.3502811363029E-01
    31  3.0000000000000E-01  1.6690275416416E+00  2.8689221783586E-01
    32  3.1000000000000E-01  1.6577321751545E+00  3.3784964000899E-01
    33  3.2000000000000E-01  1.6430104780841E+00  3.8752628939822E-01
    34  3.3000000000000E-01  1.6250308157962E+00  4.3559964878959E-01
    35  3.4000000000000E-01  1.6039525093663E+00  4.8180436989884E-01
    36  3.5000000000000E-01  1.5799237201053E+00  5.2593670820496E-01
    37  3.6000000000000E-01  1.5530797422410E+00  5.6785768798353E-01
    38  3.7000000000000E-01  1.5235417435029E+00  6.0749490996144E-01
    39  3.8000000000000E-01  1.4914159851724E+00  6.4484293815683E-01
    40  3.9000000000000E-01  1.4567935440236E+00  6.7996222871645E-01
    41  4.0000000000000E-01  1.4197505486187E+00  7.1297659148190E-01
    42  4.1000000000000E-01  1.3803489318271E+00  7.4406920411093E-01
    43  4.2000000000000E-01  1.3386376903945E+00  7.7347722831255E-01
    44  4.3000000000000E-01  1.2946546311139E+00  8.0148510754068E-01
    45  4.4000000000000E-01  1.2484285718832E+00  8.2841665472160E-01
    46  4.5000000000000E-01  1.1999819549096E+00  8.5462606664316E-01
    47  4.6000000000000E-01  1.1493338187935E+00  8.8048802787389E-01
    48  4.7000000000000E-01  1.0965030664436E+00  9.0638709089700E-01
    49  4.8000000000000E-01  1.0415119569855E+00  9.3270653993861E-01
    50  4.9000000000000E-01  9.8438974225992E-01  9.5981696319516E-01
    51  5.0000000000000E-01  9.2517636238529E-01  9.8806477131804E-01
    52  5.1000000000000E-01  8.6392611036878E-01  1.0177609086665E+00
    53  5.2000000000000E-01  8.0071117306375E-01  1.0491700076404E+00
    54  5.3000000000000E-01  7.3562495501073E-01  1.0825002350960E+00
    55  5.4000000000000E-01  6.6878509296484E-01  1.1178940732672E+00
    56  5.5000000000000E-01  6.0033607224872E-01  1.1554202657223E+00
    57  5.6000000000000E-01  5.3045136148610E-01  1.1950671417349E+00
    58  5.7000000000000E-01  4.5933498972258E-01  1.2367375102338E+00
    59  5.8000000000000E-01  3.8722249933982E-01  1.2802452875105E+00
    60  5.9000000000000E-01  3.1438121937895E-01  1.3253139915215E+00
    61  6.0000000000000E-01  2.4110981672586E-01  1.3715772004605E+00
    62  6.1000000000000E-01  1.6773709684945E-01  1.4185810349059E+00
    63  6.2000000000000E-01  9.4620041156285E-02  1.4657886820080E+00
    64  6.3000000000000E-01  2.2141084231582E-02  1.5125869376484E+00
    65  6.4000000000000E-01 -4.9295349054385E-02  1.5582946991620E+00
    66  6.5000000000000E-01 -1.1926700973624E-01  1.6021732979502E+00
    67  6.6000000000000E-01 -1.8733864076093E-01  1.6434385190745E+00
    68  6.7000000000000E-01 -2.5306737328572E-01  1.6812741146493E+00
    69  6.8000000000000E-01 -3.1600861865964E-01  1.7148465804600E+00
    70  6.9000000000000E-01 -3.7572235773229E-01  1.7433209316333E+00
    71  7.0000000000000E-01 -4.3177971705956E-01  1.7658771841929E+00
    72  7.1000000000000E-01 -4.8376971149667E-01  1.7817272257168E+00
    73  7.2000000000000E-01 -5.3130602486444E-01  1.7901317407265E+00
    74  7.3000000000000E-01 -5.7403369508605E-01  1.7904168454343E+00
    75  7.4000000000000E-01 -6.1163556760704E-01  1.7819900824653E+00
    76  7.5000000000000E-01 -6.4383838116723E-01  1.7643554294344E+00
    77  7.6000000000000E-01 -6.7041835316038E-01  1.7371269859121E+00
    78  7.7000000000000E-01 -6.9120613791126E-01  1.7000410213296E+00
    79  7.8000000000000E-01 -7.0609104016209E-01  1.6529660915398E+00
    80  7.9000000000000E-01 -7.1502437777358E-01  1.5959109637150E+00
    81  8.0000000000000E-01 -7.1802190192548E-01  1.5290301275042E+00
    82  8.1000000000000E-01 -7.1516519970002E-01  1.4526267142147E+00
    83  8.2000000000000E-01 -7.0660202254699E-01  1.3671526944266E+00
    84  8.3000000000000E-01 -6.9254550440396E-01  1.2732062769535E+00
    85  8.4000000000000E-01 -6.7327225477719E-01  1.1715264873944E+00
    86  8.5000000000000E-01 -6.4911933444287E-01  1.0629849615571E+00
    87  8.6000000000000E-01 -6.2048014413320E-01  9.4857504658597E-01
    88  8.7000000000000E-01 -5.8779927914710E-01  8.2939835947432E-01
    89  8.8000000000000E-01 -5.5156642477721E-01  7.0664900755902E-01
    90  8.9000000000000E-01 -5.1230938828477E-01  5.8159572735713E-01
    91  9.0000000000000E-01 -4.7058638241010E-01  4.5556224555360E-01
    92  9.1000000000000E-01 -4.2697769262952E-01  3.2990620798004E-01
    93  9.2000000000000E-01 -3.8207687514930E-01  2.0599705803822E-01
    94  9.3000000000000E-01 -3.3648164459797E-01  8.5193274341668E-02
    95  9.4000000000000E-01 -2.9078461923155E-01 -3.1180602363851E-02
    96  9.5000000000000E-01 -2.4556409695445E-01 -1.4185671125880E-01
    97  9.6000000000000E-01 -2.0137503740665E-01 -2.4564593806581E-01
    98  9.7000000000000E-01 -1.5874042367524E-01 -3.4145886832892E-01
    99  9.8000000000000E-01 -1.1814317182950E-01 -4.2832520521464E-01
   100  9.9000000000000E-01 -8.0018747513827E-02 -5.0541125447715E-01
   101  1.0000000000000E+00 -4.4748636401658E-02 -5.7203511264936E-01
   102  1.0100000000000E+00 -1.2654799628636E-02 -6.2767923600771E-01
   103  1.0200000000000E+00  1.6004773328587E-02 -6.7200011665581E-01
   104  1.0300000000000E+00  4.1039323108862E-02 -7.0483484721656E-01
   105  1.0400000000000E+00  6.2327322463078E-02 -7.2620441603961E-01
   106  1.0500000000000E+00  7.9817179153897E-02 -7.3631363939244E-01
   107  1.0600000000000E+00  9.3526623426529E-02 -7.3554770431525E-01
   108  1.0700000000000E+00  1.0354079069819E-01 -7.2446536449450E-01
   109  1.0800000000000E+00  1.1000903716578E-01 -7.0378890012780E-01
   110  1.0900000000000E+00  1.1314055252387E-01 -6.7439101973079E-01
   111  1.1000000000000E+00  1.1319885949875E-01 -6.3727894612880E-01
   112  1.1100000000000E+00  1.1049531366323E-01 -5.9357598854320E-01
   113  1.1200000000000E+00  1.0538173872283E-01 -5.4450095703989E-01
   114  1.1300000000000E+00  9.8242351449861E-02 -4.9134582289779E-01
   115  1.1400000000000E+00  8.9485146448691E-02 -4.3545206809397E-01
   116  1.1500000000000E+00  7.9532923453478E-02 -3.7818619783174E-01
   117  1.1600000000000E+00  6.8814148707788E-02 -3.2091491142212E-01
   118  1.1700000000000E+00  5.7753846758488E-02 -2.6498043481426E-01
   119  1.1800000000000E+00  4.6764721168766E-02 -2.1167655183523E-01
   120  1.1900000000000E+00  3.6238703443322E-02 -1.6222576671207E-01
   121  1.2000000000000E+00  2.6539073256570E-02 -1.1776425269878E-01
   122  1.2100000000000E+00  1.7992092375518E-02 -7.9311326422933E-02
   123  1.2200000000000E+00  1.0879350006005E-02 -4.7739044819461E-02
   124  1.2300000000000E+00  5.4287856124879E-03 -2.3759858896586E-02
   125  1.2400000000000E+00  1.8049443876397E-03 -7.8941328442219E-03
   126  1.2500000000000E+00  1.4953885034181E-04 -6.5480742903579E-04
   127  1.2600000000000E+00 -8.1162106561363E-06  3.5564956686935E-05
   128  1.2700000000000E+00 -8.7870944369525E-07  3.8451863647713E-06
   129  1.28  0.  0.
   130  1.29  0.  0.
   131  1.30  0.  0.
   132  1.31  0.  0.
   133  1.32  0.  0.
   134  1.33  0.  0.
   135  1.34  0.  0.
   136  1.35  0.  0.
   137  1.36  0.  0.
   138  1.37  0.  0.
   139  1.38  0.  0.
   140  1.39  0.  0.
   141  1.40  0.  0.
   142  1.41  0.  0.
   143  1.42  0.  0.
   144  1.43  0.  0.
   145  1.44  0.  0.
   146  1.45  0.  0.
   147  1.46  0.  0.
   148  1.47  0.  0.
   149  1.48  0.  0.
   150  1.49  0.  0.
   151  1.50  0.  0.
   152  1.51  0.  0.
   153  1.52  0.  0.
   154  1.53  0.  0.
   155  1.54  0.  0.
   156  1.55  0.  0.
   157  1.56  0.  0.
   158  1.57  0.  0.
   159  1.58  0.  0.
   160  1.59  0.  0.
   161  1.60  0.  0.
   162  1.61  0.  0.
   163  1.62  0.  0.
   164  1.63  0.  0.
   165  1.64  0.  0.
   166  1.65  0.  0.
   167  1.66  0.  0.
   168  1.67  0.  0.
   169  1.68  0.  0.
   170  1.69  0.  0.
   171  1.70  0.  0.
   172  1.71  0.  0.
   173  1.72  0.  0.
   174  1.73  0.  0.
   175  1.74  0.  0.
   176  1.75  0.  0.
   177  1.76  0.  0.
   178  1.77  0.  0.
   179  1.78  0.  0.
   180  1.79  0.  0.
   181  1.80  0.  0.
   182  1.81  0.  0.
   183  1.82  0.  0.
   184  1.83  0.  0.
   185  1.84  0.  0.
   186  1.85  0.  0.
   187  1.86  0.  0.
   188  1.87  0.  0.
   189  1.88  0.  0.
   190  1.89  0.  0.
   191  1.90  0.  0.
   192  1.91  0.  0.
   193  1.92  0.  0.
   194  1.93  0.  0.
   195  1.94  0.  0.
   196  1.95  0.  0.
   197  1.96  0.  0.
   198  1.97  0.  0.
   199  1.98  0.  0.
   200  1.99  0.  0.
   201  2.00  0.  0.
   202  2.01  0.  0.
   203  2.02  0.  0.
   204  2.03  0.  0.
   205  2.04  0.  0.
   206  2.05  0.  0.
   207  2.06  0.  0.
   208  2.07  0.  0.
   209  2.08  0.  0.
   210  2.09  0.  0.
   211  2.10  0.  0.
   212  2.11  0.  0.
   213  2.12  0.  0.
   214  2.13  0.  0.
   215  2.14  0.  0.
   216  2.15  0.  0.
   217  2.16  0.  0.
   218  2.17  0.  0.
   219  2.18  0.  0.
   220  2.19  0.  0.
   221  2.20  0.  0.
   222  2.21  0.  0.
   223  2.22  0.  0.
   224  2.23  0.  0.
   225  2.24  0.  0.
   226  2.25  0.  0.
   227  2.26  0.  0.
   228  2.27  0.  0.
   229  2.28  0.  0.
   230  2.29  0.  0.
   231  2.30  0.  0.
   232  2.31  0.  0.
   233  2.32  0.  0.
   234  2.33  0.  0.
   235  2.34  0.  0.
   236  2.35  0.  0.
   237  2.36  0.  0.
   238  2.37  0.  0.
   239  2.38  0.  0.
   240  2.39  0.  0.
   241  2.40  0.  0.
   242  2.41  0.  0.
   243  2.42  0.  0.
   244  2.43  0.  0.
   245  2.44  0.  0.
   246  2.45  0.  0.
   247  2.46  0.  0.
   248  2.47  0.  0.
   249  2.48  0.  0.
   250  2.49  0.  0.
   251  2.50  0.  0.
   252  2.51  0.  0.
   253  2.52  0.  0.
   254  2.53  0.  0.
   255  2.54  0.  0.
   256  2.55  0.  0.
   257  2.56  0.  0.
   258  2.57  0.  0.
   259  2.58  0.  0.
   260  2.59  0.  0.
   261  2.60  0.  0.
   262  2.61  0.  0.
   263  2.62  0.  0.
   264  2.63  0.  0.
   265  2.64  0.  0.
   266  2.65  0.  0.
   267  2.66  0.  0.
   268  2.67  0.  0.
   269  2.68  0.  0.
   270  2.69  0.  0.
   271  2.70  0.  0.
   272  2.71  0.  0.
   273  2.72  0.  0.
   274  2.73  0.  0.
   275  2.74  0.  0.
   276  2.75  0.  0.
   277  2.76  0.  0.
   278  2.77  0.  0.
   279  2.78  0.  0.
   280  2.79  0.  0.
   281  2.80  0.  0.
   282  2.81  0.  0.
   283  2.82  0.  0.
   284  2.83  0.  0.
   285  2.84  0.  0.
   286  2.85  0.  0.
   287  2.86  0.  0.
   288  2.87  0.  0.
   289  2.88  0.  0.
   290  2.89  0.  0.
   291  2.90  0.  0.
   292  2.91  0.  0.
   293  2.92  0.  0.
   294  2.93  0.  0.
   295  2.94  0.  0.
   296  2.95  0.  0.
   297  2.96  0.  0.
   298  2.97  0.  0.
   299  2.98  0.  0.
   300  2.99  0.  0.
   301  3.00  0.  0.
   302  3.01  0.  0.
   303  3.02  0.  0.
   304  3.03  0.  0.
   305  3.04  0.  0.
   306  3.05  0.  0.
   307  3.06  0.  0.
   308  3.07  0.  0.
   309  3.08  0.  0.
   310  3.09  0.  0.
   311  3.10  0.  0.
   312  3.11  0.  0.
   313  3.12  0.  0.
   314  3.13  0.  0.
   315  3.14  0.  0.
   316  3.15  0.  0.
   317  3.16  0.  0.
   318  3.17  0.  0.
   319  3.18  0.  0.
   320  3.19  0.  0.
   321  3.20  0.  0.
   322  3.21  0.  0.
   323  3.22  0.  0.
   324  3.23  0.  0.
   325  3.24  0.  0.
   326  3.25  0.  0.
   327  3.26  0.  0.
   328  3.27  0.  0.
   329  3.28  0.  0.
   330  3.29  0.  0.
   331  3.30  0.  0.
   332  3.31  0.  0.
   333  3.32  0.  0.
   334  3.33  0.  0.
   335  3.34  0.  0.
   336  3.35  0.  0.
   337  3.36  0.  0.
   338  3.37  0.  0.
   339  3.38  0.  0.
   340  3.39  0.  0.
   341  3.40  0.  0.
   342  3.41  0.  0.
   343  3.42  0.  0.
   344  3.43  0.  0.
   345  3.44  0.  0.
   346  3.45  0.  0.
   347  3.46  0.  0.
   348  3.47  0.  0.
   349  3.48  0.  0.
   350  3.49  0.  0.
   351  3.50  0.  0.
   352  3.51  0.  0.
   353  3.52  0.  0.
   354  3.53  0.  0.
   355  3.54  0.  0.
   356  3.55  0.  0.
   357  3.56  0.  0.
   358  3.57  0.  0.
   359  3.58  0.  0.
   360  3.59  0.  0.
   361  3.60  0.  0.
   362  3.61  0.  0.
   363  3.62  0.  0.
   364  3.63  0.  0.
   365  3.64  0.  0.
   366  3.65  0.  0.
   367  3.66  0.  0.
   368  3.67  0.  0.
   369  3.68  0.  0.
   370  3.69  0.  0.
   371  3.70  0.  0.
   372  3.71  0.  0.
   373  3.72  0.  0.
   374  3.73  0.  0.
   375  3.74  0.  0.
   376  3.75  0.  0.
   377  3.76  0.  0.
   378  3.77  0.  0.
   379  3.78  0.  0.
   380  3.79  0.  0.
   381  3.80  0.  0.
   382  3.81  0.  0.
   383  3.82  0.  0.
   384  3.83  0.  0.
   385  3.84  0.  0.
   386  3.85  0.  0.
   387  3.86  0.  0.
   388  3.87  0.  0.
   389  3.88  0.  0.
   390  3.89  0.  0.
   391  3.90  0.  0.
   392  3.91  0.  0.
   393  3.92  0.  0.
   394  3.93  0.  0.
   395  3.94  0.  0.
   396  3.95  0.  0.
   397  3.96  0.  0.
   398  3.97  0.  0.
   399  3.98  0.  0.
   400  3.99  0.  0.
   401  4.00  0.  0.
   402  4.01  0.  0.
   403  4.02  0.  0.
   404  4.03  0.  0.
   405  4.04  0.  0.
   406  4.05  0.  0.
   407  4.06  0.  0.
   408  4.07  0.  0.
   409  4.08  0.  0.
   410  4.09  0.  0.
   411  4.10  0.  0.
   412  4.11  0.  0.
   413  4.12  0.  0.
   414  4.13  0.  0.
   415  4.14  0.  0.
   416  4.15  0.  0.
   417  4.16  0.  0.
   418  4.17  0.  0.
   419  4.18  0.  0.
   420  4.19  0.  0.
   421  4.20  0.  0.
   422  4.21  0.  0.
   423  4.22  0.  0.
   424  4.23  0.  0.
   425  4.24  0.  0.
   426  4.25  0.  0.
   427  4.26  0.  0.
   428  4.27  0.  0.
   429  4.28  0.  0.
   430  4.29  0.  0.
   431  4.30  0.  0.
   432  4.31  0.  0.
   433  4.32  0.  0.
   434  4.33  0.  0.
   435  4.34  0.  0.
   436  4.35  0.  0.
   437  4.36  0.  0.
   438  4.37  0.  0.
   439  4.38  0.  0.
   440  4.39  0.  0.
   441  4.40  0.  0.
   442  4.41  0.  0.
   443  4.42  0.  0.
   444  4.43  0.  0.
   445  4.44  0.  0.
   446  4.45  0.  0.
   447  4.46  0.  0.
   448  4.47  0.  0.
   449  4.48  0.  0.
   450  4.49  0.  0.
   451  4.50  0.  0.
   452  4.51  0.  0.
   453  4.52  0.  0.
   454  4.53  0.  0.
   455  4.54  0.  0.
   456  4.55  0.  0.
   457  4.56  0.  0.
   458  4.57  0.  0.
   459  4.58  0.  0.
   460  4.59  0.  0.
   461  4.60  0.  0.
   462  4.61  0.  0.
   463  4.62  0.  0.
   464  4.63  0.  0.
   465  4.64  0.  0.
   466  4.65  0.  0.
   467  4.66  0.  0.
   468  4.67  0.  0.
   469  4.68  0.  0.
   470  4.69  0.  0.
   471  4.70  0.  0.
   472  4.71  0.  0.
   473  4.72  0.  0.
   474  4.73  0.  0.
   475  4.74  0.  0.
   476  4.75  0.  0.
   477  4.76  0.  0.
   478  4.77  0.  0.
   479  4.78  0.  0.
   480  4.79  0.  0.
   481  4.80  0.  0.
   482  4.81  0.  0.
   483  4.82  0.  0.
   484  4.83  0.  0.
   485  4.84  0.  0.
   486  4.85  0.  0.
   487  4.86  0.  0.
   488  4.87  0.  0.
   489  4.88  0.  0.
   490  4.89  0.  0.
   491  4.90  0.  0.
   492  4.91  0.  0.
   493  4.92  0.  0.
   494  4.93  0.  0.
   495  4.94  0.  0.
   496  4.95  0.  0.
   497  4.96  0.  0.
   498  4.97  0.  0.
   499  4.98  0.  0.
   500  4.99  0.  0.
   501  5.00  0.  0.
   502  5.01  0.  0.
   503  5.02  0.  0.
   504  5.03  0.  0.
   505  5.04  0.  0.
   506  5.05  0.  0.
   507  5.06  0.  0.
   508  5.07  0.  0.
   509  5.08  0.  0.
   510  5.09  0.  0.
   511  5.10  0.  0.
   512  5.11  0.  0.
   513  5.12  0.  0.
   514  5.13  0.  0.
   515  5.14  0.  0.
   516  5.15  0.  0.
   517  5.16  0.  0.
   518  5.17  0.  0.
   519  5.18  0.  0.
   520  5.19  0.  0.
   521  5.20  0.  0.
   522  5.21  0.  0.
   523  5.22  0.  0.
   524  5.23  0.  0.
   525  5.24  0.  0.
   526  5.25  0.  0.
   527  5.26  0.  0.
   528  5.27  0.  0.
   529  5.28  0.  0.
   530  5.29  0.  0.
   531  5.30  0.  0.
   532  5.31  0.  0.
   533  5.32  0.  0.
   534  5.33  0.  0.
   535  5.34  0.  0.
   536  5.35  0.  0.
   537  5.36  0.  0.
   538  5.37  0.  0.
   539  5.38  0.  0.
   540  5.39  0.  0.
   541  5.40  0.  0.
   542  5.41  0.  0.
   543  5.42  0.  0.
   544  5.43  0.  0.
   545  5.44  0.  0.
   546  5.45  0.  0.
   547  5.46  0.  0.
   548  5.47  0.  0.
   549  5.48  0.  0.
   550  5.49  0.  0.
   551  5.50  0.  0.
   552  5.51  0.  0.
   553  5.52  0.  0.
   554  5.53  0.  0.
   555  5.54  0.  0.
   556  5.55  0.  0.
   557  5.56  0.  0.
   558  5.57  0.  0.
   559  5.58  0.  0.
   560  5.59  0.  0.
   561  5.60  0.  0.
   562  5.61  0.  0.
   563  5.62  0.  0.
   564  5.63  0.  0.
   565  5.64  0.  0.
   566  5.65  0.  0.
   567  5.66  0.  0.
   568  5.67  0.  0.
   569  5.68  0.  0.
   570  5.69  0.  0.
   571  5.70  0.  0.
   572  5.71  0.  0.
   573  5.72  0.  0.
   574  5.73  0.  0.
   575  5.74  0.  0.
   576  5.75  0.  0.
   577  5.76  0.  0.
   578  5.77  0.  0.
   579  5.78  0.  0.
   580  5.79  0.  0.
   581  5.80  0.  0.
   582  5.81  0.  0.
   583  5.82  0.  0.
   584  5.83  0.  0.
   585  5.84  0.  0.
   586  5.85  0.  0.
   587  5.86  0.  0.
   588  5.87  0.  0.
   589  5.88  0.  0.
   590  5.89  0.  0.
   591  5.90  0.  0.
   592  5.91  0.  0.
   593  5.92  0.  0.
   594  5.93  0.  0.
   595  5.94  0.  0.
   596  5.95  0.  0.
   597  5.96  0.  0.
   598  5.97  0.  0.
   599  5.98  0.  0.
   600  5.99  0.  0.
   1                        -5.1556855154145E+00 -1.2280579089815E+00
     1  0.0000000000000E+00 -6.2325967720156E-09  1.3391030784238E-08
     2  1.0000000000000E-02  2.2828783476587E-03 -9.6575121653894E-04
     3  2.0000000000000E-02  9.1224515241623E-03 -3.8587624380805E-03
     4  3.0000000000000E-02  2.0491464570237E-02 -8.6661119388987E-03
     5  4.0000000000000E-02  3.6344265527112E-02 -1.5365624367182E-02
     6  5.0000000000000E-02  5.6616479364300E-02 -2.3924943218437E-02
     7  6.0000000000000E-02  8.1224579924775E-02 -3.4300293606104E-02
     8  7.0000000000000E-02  1.1006538720653E-01 -4.6434994181635E-02
     9  8.0000000000000E-02  1.4301552353205E-01 -6.0257790447318E-02
    10  9.0000000000000E-02  1.7993086727437E-01 -7.5681092670341E-02
    11  1.0000000000000E-01  2.2064604663138E-01 -9.2599209761811E-02
    12  1.1000000000000E-01  2.6497401832861E-01 -1.1088667552927E-01
    13  1.2000000000000E-01  3.1270577698710E-01 -1.3039676543964E-01
    14  1.3000000000000E-01  3.6361024016601E-01 -1.5096030034046E-01
    15  1.4000000000000E-01  4.1743435177401E-01 -1.7238482847841E-01
    16  1.5000000000000E-01  4.7390344268433E-01 -1.9445426873647E-01
    17  1.6000000000000E-01  5.3272188207531E-01 -2.1692908649244E-01
    18  1.7000000000000E-01  5.9357404638797E-01 -2.3954705919358E-01
    19  1.8000000000000E-01  6.5612562502086E-01 -2.6202467204215E-01
    20  1.9000000000000E-01  7.2002527318321E-01 -2.8405916557216E-01
    21  2.0000000000000E-01  7.8490661294514E-01 -3.0533123691405E-01
    22  2.1000000000000E-01  8.5039057372369E-01 -3.2550837578073E-01
    23  2.2000000000000E-01  9.1608805351238E-01 -3.4424879529682E-01
    24  2.3000000000000E-01  9.8160287238838E-01 -3.6120589736935E-01
    25  2.4000000000000E-01  1.0465349805108E+00 -3.7603319300432E-01
    26  2.5000000000000E-01  1.1104838742355E+00 -3.8838958042277E-01
    27  2.6000000000000E-01  1.1730521663862E+00 -3.9794486859621E-01
    28  2.7000000000000E-01  1.2338492503783E+00 -4.0438542142308E-01
    29  2.8000000000000E-01  1.2924949930016E+00 -4.0741978864385E-01
    30  2.9000000000000E-01  1.3486233874032E+00 -4.0678418409968E-01
    31  3.0000000000000E-01  1.4018860963004E+00 -4.0224767032959E-01
    32  3.1000000000000E-01  1.4519558157768E+00 -3.9361691092156E-01
    33  3.2000000000000E-01  1.4985293922015E+00 -3.8074035851196E-01
    34  3.3000000000000E-01  1.5413306288386E+00 -3.6351175678202E-01
    35  3.4000000000000E-01  1.5801127245131E+00 -3.4187284902206E-01
    36  3.5000000000000E-01  1.6146602941344E+00 -3.1581520351161E-01
    37  3.6000000000000E-01  1.6447909297844E+00 -2.8538108667003E-01
    38  3.7000000000000E-01  1.6703562712332E+00 -2.5066333815301E-01
    39  3.8000000000000E-01  1.6912425658949E+00 -2.1180422720274E-01
    40  3.9000000000000E-01  1.7073707100921E+00 -1.6899329593654E-01
    41  4.0000000000000E-01  1.7186957757464E+00 -1.2246422216352E-01
    42  4.1000000000000E-01  1.7252060389298E+00 -7.2490761005155E-02
    43  4.2000000000000E-01  1.7269215387556E+00 -1.9381850305041E-02
    44  4.3000000000000E-01  1.7238922065342E+00  3.6524011195195E-02
    45  4.4000000000000E-01  1.7161956156353E+00  9.4864982378990E-02
    46  4.5000000000000E-01  1.7039344117953E+00  1.5526254597264E-01
    47  4.6000000000000E-01  1.6872334914044E+00  2.1732845866067E-01
    48  4.7000000000000E-01  1.6662370013727E+00  2.8067181067980E-01
    49  4.8000000000000E-01  1.6411052383156E+00  3.4490601441063E-01
    50  4.9000000000000E-01  1.6120115268784E+00  4.0965554025646E-01
    51  5.0000000000000E-01  1.5791391569431E+00  4.7456222184149E-01
    52  5.1000000000000E-01  1.5426784572117E+00  5.3929096128484E-01
    53  5.2000000000000E-01  1.5028240782578E+00  6.0353467888255E-01
    54  5.3000000000000E-01  1.4597725516822E+00  6.6701836968818E-01
    55  5.4000000000000E-01  1.4137201836405E+00  7.2950215182794E-01
    56  5.5000000000000E-01  1.3648613309374E+00  7.9078321739397E-01
    57  5.6000000000000E-01  1.3133870963606E+00  8.5069662579677E-01
    58  5.7000000000000E-01  1.2594844672426E+00  9.0911491079444E-01
    59  5.8000000000000E-01  1.2033359077420E+00  9.6594650524306E-01
    60  5.9000000000000E-01  1.1451194013705E+00  1.0211330210642E+00
    61  6.0000000000000E-01  1.0850089262568E+00  1.0746454550975E+00
    62  6.1000000000000E-01  1.0231753319038E+00  1.1264794234892E+00
    63  6.2000000000000E-01  9.5978757316744E-01  1.1766495571538E+00
    64  6.3000000000000E-01  8.9501424522267E-01  1.2251832177824E+00
    65  6.4000000000000E-01  8.2902535274468E-01  1.2721137170433E+00
    66  6.5000000000000E-01  7.6199423774279E-01  1.3174732403225E+00
    67  6.6000000000000E-01  6.9409958370990E-01  1.3612856899629E+00
    68  6.7000000000000E-01  6.2552740922727E-01  1.4035596709980E+00
    69  6.8000000000000E-01  5.5647296205949E-01  1.4442818444850E+00
    70  6.9000000000000E-01  4.8714242519615E-01  1.4834108695286E+00
    71  7.0000000000000E-01  4.1775434928734E-01  1.5208721449119E+00
    72  7.1000000000000E-01  3.4854073145193E-01  1.5565535450350E+00
    73  7.2000000000000E-01  2.7974766841399E-01  1.5903023229014E+00
    74  7.3000000000000E-01  2.1163552218026E-01  1.6219233256289E+00
    75  7.4000000000000E-01  1.4447854878030E-01  1.6511786359941E+00
    76  7.5000000000000E-01  7.8563954664238E-02  1.6777887175907E+00
    77  7.6000000000000E-01  1.4190360847482E-02  1.7014351021305E+00
    78  7.7000000000000E-01 -4.8334328577288E-02  1.7217646162283E+00
    79  7.8000000000000E-01 -1.0869563979515E-01  1.7383951026851E+00
    80  7.9000000000000E-01 -1.6657579341162E-01  1.7509225489390E+00
    81  8.0000000000000E-01 -2.2165747128204E-01  1.7589294940766E+00
    82  8.1000000000000E-01 -2.7362802165778E-01  1.7619945467070E+00
    83  8.2000000000000E-01 -3.2218402321510E-01  1.7597028101639E+00
    84  8.3000000000000E-01 -3.6703611509975E-01  1.7516569799350E+00
    85  8.4000000000000E-01 -4.0791398871571E-01  1.7374888518374E+00
    86  8.5000000000000E-01 -4.4457142795643E-01  1.7168709590803E+00
    87  8.6000000000000E-01 -4.7679127821868E-01  1.6895280426405E+00
    88  8.7000000000000E-01 -5.0439022108138E-01  1.6552480528522E+00
    89  8.8000000000000E-01 -5.2722323113640E-01  1.6138923810992E+00
    90  8.9000000000000E-01 -5.4518759420921E-01  1.5654050291713E+00
    91  9.0000000000000E-01 -5.5822637210965E-01  1.5098204401536E+00
    92  9.1000000000000E-01 -5.6633120803185E-01  1.4472697384328E+00
    93  9.2000000000000E-01 -5.6954437862106E-01  1.3779851571072E+00
    94  9.3000000000000E-01 -5.6796001331148E-01  1.3023024681533E+00
    95  9.4000000000000E-01 -5.6172441850634E-01  1.2206612733732E+00
    96  9.5000000000000E-01 -5.5103546314955E-01  1.1336030614592E+00
    97  9.6000000000000E-01 -5.3614100279322E-01  1.0417669874166E+00
    98  9.7000000000000E-01 -5.1733634092577E-01  9.4588338388345E-01
    99  9.8000000000000E-01 -4.9496074857535E-01  8.4676506833281E-01
   100  9.9000000000000E-01 -4.6939308550523E-01  7.4529656440602E-01
   101  1.0000000000000E+00 -4.4104658812232E-01  6.4242140837693E-01
   102  1.0100000000000E+00 -4.1036290998925E-01  5.3912776168011E-01
   103  1.0200000000000E+00 -3.7780552003526E-01  4.3643259627324E-01
   104  1.0300000000000E+00 -3.4385258069456E-01  3.3536476013218E-01
   105  1.0400000000000E+00 -3.0898944282312E-01  2.3694726434715E-01
   106  1.0500000000000E+00 -2.7370090595707E-01  1.4217916015339E-01
   107  1.0600000000000E+00 -2.3846340092621E-01  5.2017392970030E-02
   108  1.0700000000000E+00 -2.0373725679859E-01 -3.2640969384846E-02
   109  1.0800000000000E+00 -1.6995921539769E-01 -1.1097573616027E-01
   110  1.0900000000000E+00 -1.3753535415298E-01 -1.8225943089460E-01
   111  1.1000000000000E+00 -1.0683457176850E-01 -2.4587159398042E-01
   112  1.1100000000000E+00 -7.8182781294979E-02 -3.0131120447927E-01
   113  1.1200000000000E+00 -5.1857941751606E-02 -3.4820691001389E-01
   114  1.1300000000000E+00 -2.8086042859587E-02 -3.8632479606047E-01
   115  1.1400000000000E+00 -7.0381379387154E-03 -4.1557347549159E-01
   116  1.1500000000000E+00  1.1171501845318E-02 -4.3600633433469E-01
   117  1.1600000000000E+00  2.6486062590236E-02 -4.4782082961804E-01
   118  1.1700000000000E+00  3.8905668004913E-02 -4.5135479800515E-01
   119  1.1800000000000E+00  4.8485667030758E-02 -4.4707979893340E-01
   120  1.1900000000000E+00  5.5333756550893E-02 -4.3559157951076E-01
   121  1.2000000000000E+00  5.9605997689659E-02 -4.1759782830632E-01
   122  1.2100000000000E+00  6.1501829902640E-02 -3.9390351744310E-01
   123  1.2200000000000E+00  6.1259141221424E-02 -3.6539729934079E-01
   124  1.2300000000000E+00  5.9149248374256E-02 -3.3303819096938E-01
   125  1.2400000000000E+00  5.5470097612991E-02 -2.9783676503011E-01
   126  1.2500000000000E+00  5.0538718268914E-02 -2.6083435877740E-01
   127  1.2600000000000E+00  4.4683347374235E-02 -2.2308159136734E-01
   128  1.2700000000000E+00  3.8235401432807E-02 -1.8561663486731E-01
   129  1.2800000000000E+00  3.1521464093251E-02 -1.4944367834364E-01
   130  1.2900000000000E+00  2.4855789448357E-02 -1.1551259520203E-01
   131  1.3000000000000E+00  1.8535807342286E-02 -8.4704448341832E-02
   132  1.3100000000000E+00  1.2828281074399E-02 -5.7801012504632E-02
   133  1.3200000000000E+00  7.9651277842936E-03 -3.5471701745361E-02
   134  1.3300000000000E+00  4.1401489135100E-03 -1.8263163392316E-02
   135  1.3400000000000E+00  1.5022469275895E-03 -6.5772908078561E-03
   136  1.3500000000000E+00  1.8189734643444E-04 -7.9165600903663E-04
   137  1.3600000000000E+00 -1.7014968132984E-05  7.3831823295561E-05
   138  1.3700000000000E+00  2.6320841152966E-06 -1.1439095197240E-05
   139  1.38  0.  0.
   140  1.39  0.  0.
   141  1.40  0.  0.
   142  1.41  0.  0.
   143  1.42  0.  0.
   144  1.43  0.  0.
   145  1.44  0.  0.
   146  1.45  0.  0.
   147  1.46  0.  0.
   148  1.47  0.  0.
   149  1.48  0.  0.
   150  1.49  0.  0.
   151  1.50  0.  0.
   152  1.51  0.  0.
   153  1.52  0.  0.
   154  1.53  0.  0.
   155  1.54  0.  0.
   156  1.55  0.  0.
   157  1.56  0.  0.
   158  1.57  0.  0.
   159  1.58  0.  0.
   160  1.59  0.  0.
   161  1.60  0.  0.
   162  1.61  0.  0.
   163  1.62  0.  0.
   164  1.63  0.  0.
   165  1.64  0.  0.
   166  1.65  0.  0.
   167  1.66  0.  0.
   168  1.67  0.  0.
   169  1.68  0.  0.
   170  1.69  0.  0.
   171  1.70  0.  0.
   172  1.71  0.  0.
   173  1.72  0.  0.
   174  1.73  0.  0.
   175  1.74  0.  0.
   176  1.75  0.  0.
   177  1.76  0.  0.
   178  1.77  0.  0.
   179  1.78  0.  0.
   180  1.79  0.  0.
   181  1.80  0.  0.
   182  1.81  0.  0.
   183  1.82  0.  0.
   184  1.83  0.  0.