Y     ONCVPSP-4.0.1  r_core=   1.60378   1.50164   1.55652
     39.0000     11.0000      240309    zatom,zion,pspd
     8      11   2     4   600     0    pspcod,pspxc,lmax,lloc,mmax,r2well
  5.99000000  4.00000000  0.00000000    rchrg fchrg qchrg
     2     2     2     0    nproj
     3     1           extension_switch
     3     3     0    nprojso
   0                         9.8372296279874E+00  7.9626223016944E-01
     1  0.0000000000000E+00 -1.2377893154891E-10  5.3581886150234E-10
     2  1.0000000000000E-02  5.1674582593305E-02 -2.3783345437411E-02
     3  2.0000000000000E-02  1.0327839933942E-01 -4.7467020386587E-02
     4  3.0000000000000E-02  1.5474090606224E-01 -7.0952124997063E-02
     5  4.0000000000000E-02  2.0599199957996E-01 -9.4141290410313E-02
     6  5.0000000000000E-02  2.5696223236450E-01 -1.1693941868508E-01
     7  6.0000000000000E-02  3.0758302028493E-01 -1.3925439242335E-01
     8  7.0000000000000E-02  3.5778684127653E-01 -1.6099774463455E-01
     9  8.0000000000000E-02  4.0750742290151E-01 -1.8208527991161E-01
    10  9.0000000000000E-02  4.5667991691890E-01 -2.0243763864972E-01
    11  1.0000000000000E-01  5.0524105915899E-01 -2.2198079680943E-01
    12  1.1000000000000E-01  5.5312931319962E-01 -2.4064649459950E-01
    13  1.2000000000000E-01  6.0028499656427E-01 -2.5837258842144E-01
    14  1.3000000000000E-01  6.4665038840330E-01 -2.7510332146473E-01
    15  1.4000000000000E-01  6.9216981787604E-01 -2.9078950945545E-01
    16  1.5000000000000E-01  7.3678973272003E-01 -3.0538863922819E-01
    17  1.6000000000000E-01  7.8045874777053E-01 -3.1886487899644E-01
    18  1.7000000000000E-01  8.2312767347522E-01 -3.3118900042450E-01
    19  1.8000000000000E-01  8.6474952473199E-01 -3.4233821383926E-01
    20  1.9000000000000E-01  9.0527951065801E-01 -3.5229591914662E-01
    21  2.0000000000000E-01  9.4467500617264E-01 -3.6105137621836E-01
    22  2.1000000000000E-01  9.8289550654046E-01 -3.6859929967690E-01
    23  2.2000000000000E-01  1.0199025662718E+00 -3.7493938411018E-01
    24  2.3000000000000E-01  1.0556597240116E+00 -3.8007576678371E-01
    25  2.4000000000000E-01  1.0901324152600E+00 -3.8401643586683E-01
    26  2.5000000000000E-01  1.1232878749609E+00 -3.8677259304265E-01
    27  2.6000000000000E-01  1.1550950321542E+00 -3.8835798011427E-01
    28  2.7000000000000E-01  1.1855243990279E+00 -3.8878817984201E-01
    29  2.8000000000000E-01  1.2145479568083E+00 -3.8807990173999E-01
    30  2.9000000000000E-01  1.2421390409986E+00 -3.8625026391539E-01
    31  3.0000000000000E-01  1.2682722285176E+00 -3.8331608224633E-01
    32  3.1000000000000E-01  1.2929232292909E+00 -3.7929317825805E-01
    33  3.2000000000000E-01  1.3160687848173E+00 -3.7419571697049E-01
    34  3.3000000000000E-01  1.3376865761656E+00 -3.6803558575222E-01
    35  3.4000000000000E-01  1.3577551437541E+00 -3.6082182482703E-01
    36  3.5000000000000E-01  1.3762538211288E+00 -3.5256011954301E-01
    37  3.6000000000000E-01  1.3931626847869E+00 -3.4325236383504E-01
    38  3.7000000000000E-01  1.4084625218887E+00 -3.3289630349624E-01
    39  3.8000000000000E-01  1.4221348174720E+00 -3.2148526693003E-01
    40  3.9000000000000E-01  1.4341617625223E+00 -3.0900798999407E-01
    41  4.0000000000000E-01  1.4445262839722E+00 -2.9544854037896E-01
    42  4.1000000000000E-01  1.4532120973962E+00 -2.8078634570432E-01
    43  4.2000000000000E-01  1.4602037828481E+00 -2.6499632817535E-01
    44  4.3000000000000E-01  1.4654868839516E+00 -2.4804914723951E-01
    45  4.4000000000000E-01  1.4690480300086E+00 -2.2991155023421E-01
    46  4.5000000000000E-01  1.4708750805392E+00 -2.1054682953741E-01
    47  4.6000000000000E-01  1.4709572913144E+00 -1.8991538324261E-01
    48  4.7000000000000E-01  1.4692855005909E+00 -1.6797537489735E-01
    49  4.8000000000000E-01  1.4658523339184E+00 -1.4468348638703E-01
    50  4.9000000000000E-01  1.4606524255535E+00 -1.1999575663253E-01
    51  5.0000000000000E-01  1.4536826542052E+00 -9.3868497420929E-02
    52  5.1000000000000E-01  1.4449423905382E+00 -6.6259276417985E-02
    53  5.2000000000000E-01  1.4344337535925E+00 -3.7127956239471E-02
    54  5.3000000000000E-01  1.4221618730359E+00 -6.4377774004921E-03
    55  5.4000000000000E-01  1.4081351539554E+00  2.5843527967306E-02
    56  5.5000000000000E-01  1.3923655407202E+00  5.9742605526798E-02
    57  5.6000000000000E-01  1.3748687763107E+00  9.5279345801642E-02
    58  5.7000000000000E-01  1.3556646534145E+00  1.3246576388983E-01
    59  5.8000000000000E-01  1.3347772535337E+00  1.7130490710693E-01
    60  5.9000000000000E-01  1.3122351703426E+00  2.1178980595007E-01
    61  6.0000000000000E-01  1.2880717135669E+00  2.5390248369602E-01
    62  6.1000000000000E-01  1.2623250897410E+00  2.9761303968053E-01
    63  6.2000000000000E-01  1.2350385563262E+00  3.4287882084888E-01
    64  6.3000000000000E-01  1.2062605458458E+00  3.8964369552514E-01
    65  6.4000000000000E-01  1.1760447569118E+00  4.3783744251887E-01
    66  6.5000000000000E-01  1.1444502092772E+00  4.8737526768499E-01
    67  6.6000000000000E-01  1.1115412603501E+00  5.3815745887771E-01
    68  6.7000000000000E-01  1.0773875809434E+00  5.9006918891056E-01
    69  6.8000000000000E-01  1.0420640884094E+00  6.4298047465658E-01
    70  6.9000000000000E-01  1.0056508357121E+00  6.9674629881812E-01
    71  7.0000000000000E-01  9.6823285542334E-01  7.5120689917514E-01
    72  7.1000000000000E-01  9.2989995808327E-01  8.0618822830526E-01
    73  7.2000000000000E-01  8.9074648483899E-01  8.6150258487822E-01
    74  7.3000000000000E-01  8.5087101476099E-01  9.1694941568021E-01
    75  7.4000000000000E-01  8.1037602773038E-01  9.7231628554452E-01
    76  7.5000000000000E-01  7.6936752428556E-01  1.0273800103744E+00
    77  7.6000000000000E-01  7.2795460430922E-01  1.0819079464662E+00
    78  7.7000000000000E-01  6.8624900691916E-01  1.1356594273999E+00
    79  7.8000000000000E-01  6.4436461439493E-01  1.1883873378799E+00
    80  7.9000000000000E-01  6.0241692341948E-01  1.2398398121099E+00
    81  8.0000000000000E-01  5.6052248733736E-01  1.2897620425888E+00
    82  8.1000000000000E-01  5.1879833352136E-01  1.3378981836454E+00
    83  8.2000000000000E-01  4.7736136029429E-01  1.3839933326064E+00
    84  8.3000000000000E-01  4.3632771816686E-01  1.4277955702329E+00
    85  8.4000000000000E-01  3.9581218042134E-01  1.4690580409895E+00
    86  8.5000000000000E-01  3.5592750829144E-01  1.5075410528294E+00
    87  8.6000000000000E-01  3.1678381615714E-01  1.5430141755194E+00
    88  8.7000000000000E-01  2.7848794228712E-01  1.5752583160834E+00
    89  8.8000000000000E-01  2.4114283071794E-01  1.6040677497363E+00
    90  8.9000000000000E-01  2.0484692985806E-01  1.6292520847098E+00
    91  9.0000000000000E-01  1.6969361334356E-01  1.6506381396397E+00
    92  9.1000000000000E-01  1.3577062855211E-01  1.6680717126998E+00
    93  9.2000000000000E-01  1.0315957800263E-01  1.6814192224194E+00
    94  9.3000000000000E-01  7.1935438629864E-02  1.6905692011108E+00
    95  9.4000000000000E-01  4.2166123630666E-02  1.6954336230495E+00
    96  9.5000000000000E-01  1.3912091230365E-02  1.6959490509847E+00
    97  9.6000000000000E-01 -1.2773995679256E-02  1.6920775861929E+00
    98  9.7000000000000E-01 -3.7847555523988E-02  1.6838076091185E+00
    99  9.8000000000000E-01 -6.1272316633780E-02  1.6711542996382E+00
   100  9.9000000000000E-01 -8.3020485937238E-02  1.6541599281366E+00
   101  1.0000000000000E+00 -1.0307285582639E-01  1.6328939108524E+00
   102  1.0100000000000E+00 -1.2141884783767E-01  1.6074526253367E+00
   103  1.0200000000000E+00 -1.3805649239938E-01  1.5779589843213E+00
   104  1.0300000000000E+00 -1.5299234451304E-01  1.5445617688006E+00
   105  1.0400000000000E+00 -1.6624133586189E-01  1.5074347236675E+00
   106  1.0500000000000E+00 -1.7782656446518E-01  1.4667754217681E+00
   107  1.0600000000000E+00 -1.8777902361516E-01  1.4228039047337E+00
   108  1.0700000000000E+00 -1.9613727244037E-01  1.3757611113815E+00
   109  1.0800000000000E+00 -2.0294705102298E-01  1.3259071068162E+00
   110  1.0900000000000E+00 -2.0826084355660E-01  1.2735191275859E+00
   111  1.1000000000000E+00 -2.1213739355588E-01  1.2188894603280E+00
   112  1.1100000000000E+00 -2.1464117561373E-01  1.1623231732435E+00
   113  1.1200000000000E+00 -2.1584182864296E-01  1.1041357214588E+00
   114  1.1300000000000E+00 -2.1581355592701E-01  1.0446504488305E+00
   115  1.1400000000000E+00 -2.1463449763975E-01  9.8419601001580E-01
   116  1.1500000000000E+00 -2.1238608176786E-01  9.2310373764610E-01
   117  1.1600000000000E+00 -2.0915235958108E-01  8.6170498018932E-01
   118  1.1700000000000E+00 -2.0501933194135E-01  8.0032843656138E-01
   119  1.1800000000000E+00 -2.0007427281925E-01  7.3929751373367E-01
   120  1.1900000000000E+00 -1.9440505639480E-01  6.7892773348368E-01
   121  1.2000000000000E+00 -1.8809949405825E-01  6.1952421404180E-01
   122  1.2100000000000E+00 -1.8124468749527E-01  5.6137925170564E-01
   123  1.2200000000000E+00 -1.7392640384189E-01  5.0477002652806E-01
   124  1.2300000000000E+00 -1.6622847862744E-01  4.4995645493692E-01
   125  1.2400000000000E+00 -1.5823225189443E-01  3.9717921064337E-01
   126  1.2500000000000E+00 -1.5001604249238E-01  3.4665793343202E-01
   127  1.2600000000000E+00 -1.4165466509423E-01  2.9858964343450E-01
   128  1.2700000000000E+00 -1.3321899398640E-01  2.5314737629485E-01
   129  1.2800000000000E+00 -1.2477557713448E-01  2.1047905223180E-01
   130  1.2900000000000E+00 -1.1638630344051E-01  1.7070658945235E-01
   131  1.3000000000000E+00 -1.0810812548860E-01  1.3392526968913E-01
   132  1.3100000000000E+00 -9.9992839423923E-02  1.0020336082274E-01
   133  1.3200000000000E+00 -9.2086922943333E-02  6.9581998684334E-02
   134  1.3300000000000E+00 -8.4431431695297E-02  4.2075327219827E-02
   135  1.3400000000000E+00 -7.7061953699629E-02  1.7670893262798E-02
   136  1.3500000000000E+00 -7.0008620714456E-02 -3.6697107431109E-03
   137  1.3600000000000E+00 -6.3296174805004E-02 -2.2009965585894E-02
   138  1.3700000000000E+00 -5.6944087716357E-02 -3.7437317963419E-02
   139  1.3800000000000E+00 -5.0966730020924E-02 -5.0061861931341E-02
   140  1.3900000000000E+00 -4.5373586417764E-02 -6.0014826545943E-02
   141  1.4000000000000E+00 -4.0169513004486E-02 -6.7446889452982E-02
   142  1.4100000000000E+00 -3.5355031833679E-02 -7.2526338289966E-02
   143  1.4200000000000E+00 -3.0926657608645E-02 -7.5437103658794E-02
   144  1.4300000000000E+00 -2.6877250973128E-02 -7.6376689065908E-02
   145  1.4400000000000E+00 -2.3196392513509E-02 -7.5554024590059E-02
   146  1.4500000000000E+00 -1.9870771320746E-02 -7.3187272118023E-02
   147  1.4600000000000E+00 -1.6884581758007E-02 -6.9501610766955E-02
   148  1.4700000000000E+00 -1.4219921950911E-02 -6.4727031578321E-02
   149  1.4800000000000E+00 -1.1857187345091E-02 -5.9096171368586E-02
   150  1.4900000000000E+00 -9.7754529872837E-03 -5.2842213748786E-02
   151  1.5000000000000E+00 -7.9528405461610E-03 -4.6196868284898E-02
   152  1.5100000000000E+00 -6.3668913215323E-03 -3.9388338916632E-02
   153  1.5200000000000E+00 -4.9955870301983E-03 -3.2635570693496E-02
   154  1.5300000000000E+00 -3.8203435707062E-03 -2.6136536570456E-02
   155  1.5400000000000E+00 -2.8279463134047E-03 -2.0061249207129E-02
   156  1.5500000000000E+00 -2.0015509047291E-03 -1.4574840105084E-02
   157  1.5600000000000E+00 -1.3272906198218E-03 -9.8201422842885E-03
   158  1.5700000000000E+00 -7.9489000909789E-04 -5.9155931320528E-03
   159  1.5800000000000E+00 -3.9852538272704E-04 -2.9532484462258E-03
   160  1.5900000000000E+00 -1.3501444406410E-04 -9.8682612922127E-04
   161  1.6000000000000E+00 -1.3711017315397E-05 -9.7733518612553E-05
   162  1.6100000000000E+00  2.4540797226746E-06  1.7317602529767E-05
   163  1.6200000000000E+00 -7.7247549006869E-07 -5.5256197449592E-06
   164  1.63  0.  0.
   165  1.64  0.  0.
   166  1.65  0.  0.
   167  1.66  0.  0.
   168  1.67  0.  0.
   169  1.68  0.  0.
   170  1.69  0.  0.
   171  1.70  0.  0.
   172  1.71  0.  0.
   173  1.72  0.  0.
   174  1.73  0.  0.
   175  1.74  0.  0.
   176  1.75  0.  0.
   177  1.76  0.  0.
   178  1.77  0.  0.
   179  1.78  0.  0.
   180  1.79  0.  0.
   181  1.80  0.  0.
   182  1.81  0.  0.
   183  1.82  0.  0.
   184  1.83  0.  0.
   185  1.84  0.  0.
   186  1.85  0.  0.
   187  1.86  0.  0.
   188  1.87  0.  0.
   189  1.88  0.  0.
   190  1.89  0.  0.
   191  1.90  0.  0.
   192  1.91  0.  0.
   193  1.92  0.  0.
   194  1.93  0.  0.
   195  1.94  0.  0.
   196  1.95  0.  0.
   197  1.96  0.  0.
   198  1.97  0.  0.
   199  1.98  0.  0.
   200  1.99  0.  0.
   201  2.00  0.  0.
   202  2.01  0.  0.
   203  2.02  0.  0.
   204  2.03  0.  0.
   205  2.04  0.  0.
   206  2.05  0.  0.
   207  2.06  0.  0.
   208  2.07  0.  0.
   209  2.08  0.  0.
   210  2.09  0.  0.
   211  2.10  0.  0.
   212  2.11  0.  0.
   213  2.12  0.  0.
   214  2.13  0.  0.
   215  2.14  0.  0.
   216  2.15  0.  0.
   217  2.16  0.  0.
   218  2.17  0.  0.
   219  2.18  0.  0.
   220  2.19  0.  0.
   221  2.20  0.  0.
   222  2.21  0.  0.
   223  2.22  0.  0.
   224  2.23  0.  0.
   225  2.24  0.  0.
   226  2.25  0.  0.
   227  2.26  0.  0.
   228  2.27  0.  0.
   229  2.28  0.  0.
   230  2.29  0.  0.
   231  2.30  0.  0.
   232  2.31  0.  0.
   233  2.32  0.  0.
   234  2.33  0.  0.
   235  2.34  0.  0.
   236  2.35  0.  0.
   237  2.36  0.  0.
   238  2.37  0.  0.
   239  2.38  0.  0.
   240  2.39  0.  0.
   241  2.40  0.  0.
   242  2.41  0.  0.
   243  2.42  0.  0.
   244  2.43  0.  0.
   245  2.44  0.  0.
   246  2.45  0.  0.
   247  2.46  0.  0.
   248  2.47  0.  0.
   249  2.48  0.  0.
   250  2.49  0.  0.
   251  2.50  0.  0.
   252  2.51  0.  0.
   253  2.52  0.  0.
   254  2.53  0.  0.
   255  2.54  0.  0.
   256  2.55  0.  0.
   257  2.56  0.  0.
   258  2.57  0.  0.
   259  2.58  0.  0.
   260  2.59  0.  0.
   261  2.60  0.  0.
   262  2.61  0.  0.
   263  2.62  0.  0.
   264  2.63  0.  0.
   265  2.64  0.  0.
   266  2.65  0.  0.
   267  2.66  0.  0.
   268  2.67  0.  0.
   269  2.68  0.  0.
   270  2.69  0.  0.
   271  2.70  0.  0.
   272  2.71  0.  0.
   273  2.72  0.  0.
   274  2.73  0.  0.
   275  2.74  0.  0.
   276  2.75  0.  0.
   277  2.76  0.  0.
   278  2.77  0.  0.
   279  2.78  0.  0.
   280  2.79  0.  0.
   281  2.80  0.  0.
   282  2.81  0.  0.
   283  2.82  0.  0.
   284  2.83  0.  0.
   285  2.84  0.  0.
   286  2.85  0.  0.
   287  2.86  0.  0.
   288  2.87  0.  0.
   289  2.88  0.  0.
   290  2.89  0.  0.
   291  2.90  0.  0.
   292  2.91  0.  0.
   293  2.92  0.  0.
   294  2.93  0.  0.
   295  2.94  0.  0.
   296  2.95  0.  0.
   297  2.96  0.  0.
   298  2.97  0.  0.
   299  2.98  0.  0.
   300  2.99  0.  0.
   301  3.00  0.  0.
   302  3.01  0.  0.
   303  3.02  0.  0.
   304  3.03  0.  0.
   305  3.04  0.  0.
   306  3.05  0.  0.
   307  3.06  0.  0.
   308  3.07  0.  0.
   309  3.08  0.  0.
   310  3.09  0.  0.
   311  3.10  0.  0.
   312  3.11  0.  0.
   313  3.12  0.  0.
   314  3.13  0.  0.
   315  3.14  0.  0.
   316  3.15  0.  0.
   317  3.16  0.  0.
   318  3.17  0.  0.
   319  3.18  0.  0.
   320  3.19  0.  0.
   321  3.20  0.  0.
   322  3.21  0.  0.
   323  3.22  0.  0.
   324  3.23  0.  0.
   325  3.24  0.  0.
   326  3.25  0.  0.
   327  3.26  0.  0.
   328  3.27  0.  0.
   329  3.28  0.  0.
   330  3.29  0.  0.
   331  3.30  0.  0.
   332  3.31  0.  0.
   333  3.32  0.  0.
   334  3.33  0.  0.
   335  3.34  0.  0.
   336  3.35  0.  0.
   337  3.36  0.  0.
   338  3.37  0.  0.
   339  3.38  0.  0.
   340  3.39  0.  0.
   341  3.40  0.  0.
   342  3.41  0.  0.
   343  3.42  0.  0.
   344  3.43  0.  0.
   345  3.44  0.  0.
   346  3.45  0.  0.
   347  3.46  0.  0.
   348  3.47  0.  0.
   349  3.48  0.  0.
   350  3.49  0.  0.
   351  3.50  0.  0.
   352  3.51  0.  0.
   353  3.52  0.  0.
   354  3.53  0.  0.
   355  3.54  0.  0.
   356  3.55  0.  0.
   357  3.56  0.  0.
   358  3.57  0.  0.
   359  3.58  0.  0.
   360  3.59  0.  0.
   361  3.60  0.  0.
   362  3.61  0.  0.
   363  3.62  0.  0.
   364  3.63  0.  0.
   365  3.64  0.  0.
   366  3.65  0.  0.
   367  3.66  0.  0.
   368  3.67  0.  0.
   369  3.68  0.  0.
   370  3.69  0.  0.
   371  3.70  0.  0.
   372  3.71  0.  0.
   373  3.72  0.  0.
   374  3.73  0.  0.
   375  3.74  0.  0.
   376  3.75  0.  0.
   377  3.76  0.  0.
   378  3.77  0.  0.
   379  3.78  0.  0.
   380  3.79  0.  0.
   381  3.80  0.  0.
   382  3.81  0.  0.
   383  3.82  0.  0.
   384  3.83  0.  0.
   385  3.84  0.  0.
   386  3.85  0.  0.
   387  3.86  0.  0.
   388  3.87  0.  0.
   389  3.88  0.  0.
   390  3.89  0.  0.
   391  3.90  0.  0.
   392  3.91  0.  0.
   393  3.92  0.  0.
   394  3.93  0.  0.
   395  3.94  0.  0.
   396  3.95  0.  0.
   397  3.96  0.  0.
   398  3.97  0.  0.
   399  3.98  0.  0.
   400  3.99  0.  0.
   401  4.00  0.  0.
   402  4.01  0.  0.
   403  4.02  0.  0.
   404  4.03  0.  0.
   405  4.04  0.  0.
   406  4.05  0.  0.
   407  4.06  0.  0.
   408  4.07  0.  0.
   409  4.08  0.  0.
   410  4.09  0.  0.
   411  4.10  0.  0.
   412  4.11  0.  0.
   413  4.12  0.  0.
   414  4.13  0.  0.
   415  4.14  0.  0.
   416  4.15  0.  0.
   417  4.16  0.  0.
   418  4.17  0.  0.
   419  4.18  0.  0.
   420  4.19  0.  0.
   421  4.20  0.  0.
   422  4.21  0.  0.
   423  4.22  0.  0.
   424  4.23  0.  0.
   425  4.24  0.  0.
   426  4.25  0.  0.
   427  4.26  0.  0.
   428  4.27  0.  0.
   429  4.28  0.  0.
   430  4.29  0.  0.
   431  4.30  0.  0.
   432  4.31  0.  0.
   433  4.32  0.  0.
   434  4.33  0.  0.
   435  4.34  0.  0.
   436  4.35  0.  0.
   437  4.36  0.  0.
   438  4.37  0.  0.
   439  4.38  0.  0.
   440  4.39  0.  0.
   441  4.40  0.  0.
   442  4.41  0.  0.
   443  4.42  0.  0.
   444  4.43  0.  0.
   445  4.44  0.  0.
   446  4.45  0.  0.
   447  4.46  0.  0.
   448  4.47  0.  0.
   449  4.48  0.  0.
   450  4.49  0.  0.
   451  4.50  0.  0.
   452  4.51  0.  0.
   453  4.52  0.  0.
   454  4.53  0.  0.
   455  4.54  0.  0.
   456  4.55  0.  0.
   457  4.56  0.  0.
   458  4.57  0.  0.
   459  4.58  0.  0.
   460  4.59  0.  0.
   461  4.60  0.  0.
   462  4.61  0.  0.
   463  4.62  0.  0.
   464  4.63  0.  0.
   465  4.64  0.  0.
   466  4.65  0.  0.
   467  4.66  0.  0.
   468  4.67  0.  0.
   469  4.68  0.  0.
   470  4.69  0.  0.
   471  4.70  0.  0.
   472  4.71  0.  0.
   473  4.72  0.  0.
   474  4.73  0.  0.
   475  4.74  0.  0.
   476  4.75  0.  0.
   477  4.76  0.  0.
   478  4.77  0.  0.
   479  4.78  0.  0.
   480  4.79  0.  0.
   481  4.80  0.  0.
   482  4.81  0.  0.
   483  4.82  0.  0.
   484  4.83  0.  0.
   485  4.84  0.  0.
   486  4.85  0.  0.
   487  4.86  0.  0.
   488  4.87  0.  0.
   489  4.88  0.  0.
   490  4.89  0.  0.
   491  4.90  0.  0.
   492  4.91  0.  0.
   493  4.92  0.  0.
   494  4.93  0.  0.
   495  4.94  0.  0.
   496  4.95  0.  0.
   497  4.96  0.  0.
   498  4.97  0.  0.
   499  4.98  0.  0.
   500  4.99  0.  0.
   501  5.00  0.  0.
   502  5.01  0.  0.
   503  5.02  0.  0.
   504  5.03  0.  0.
   505  5.04  0.  0.
   506  5.05  0.  0.
   507  5.06  0.  0.
   508  5.07  0.  0.
   509  5.08  0.  0.
   510  5.09  0.  0.
   511  5.10  0.  0.
   512  5.11  0.  0.
   513  5.12  0.  0.
   514  5.13  0.  0.
   515  5.14  0.  0.
   516  5.15  0.  0.
   517  5.16  0.  0.
   518  5.17  0.  0.
   519  5.18  0.  0.
   520  5.19  0.  0.
   521  5.20  0.  0.
   522  5.21  0.  0.
   523  5.22  0.  0.
   524  5.23  0.  0.
   525  5.24  0.  0.
   526  5.25  0.  0.
   527  5.26  0.  0.
   528  5.27  0.  0.
   529  5.28  0.  0.
   530  5.29  0.  0.
   531  5.30  0.  0.
   532  5.31  0.  0.
   533  5.32  0.  0.
   534  5.33  0.  0.
   535  5.34  0.  0.
   536  5.35  0.  0.
   537  5.36  0.  0.
   538  5.37  0.  0.
   539  5.38  0.  0.
   540  5.39  0.  0.
   541  5.40  0.  0.
   542  5.41  0.  0.
   543  5.42  0.  0.
   544  5.43  0.  0.
   545  5.44  0.  0.
   546  5.45  0.  0.
   547  5.46  0.  0.
   548  5.47  0.  0.
   549  5.48  0.  0.
   550  5.49  0.  0.
   551  5.50  0.  0.
   552  5.51  0.  0.
   553  5.52  0.  0.
   554  5.53  0.  0.
   555  5.54  0.  0.
   556  5.55  0.  0.
   557  5.56  0.  0.
   558  5.57  0.  0.
   559  5.58  0.  0.
   560  5.59  0.  0.
   561  5.60  0.  0.
   562  5.61  0.  0.
   563  5.62  0.  0.
   564  5.63  0.  0.
   565  5.64  0.  0.
   566  5.65  0.  0.
   567  5.66  0.  0.
   568  5.67  0.  0.
   569  5.68  0.  0.
   570  5.69  0.  0.
   571  5.70  0.  0.
   572  5.71  0.  0.
   573  5.72  0.  0.
   574  5.73  0.  0.
   575  5.74  0.  0.
   576  5.75  0.  0.
   577  5.76  0.  0.
   578  5.77  0.  0.
   579  5.78  0.  0.
   580  5.79  0.  0.
   581  5.80  0.  0.
   582  5.81  0.  0.
   583  5.82  0.  0.
   584  5.83  0.  0.
   585  5.84  0.  0.
   586  5.85  0.  0.
   587  5.86  0.  0.
   588  5.87  0.  0.
   589  5.88  0.  0.
   590  5.89  0.  0.
   591  5.90  0.  0.
   592  5.91  0.  0.
   593  5.92  0.  0.
   594  5.93  0.  0.
   595  5.94  0.  0.
   596  5.95  0.  0.
   597  5.96  0.  0.
   598  5.97  0.  0.
   599  5.98  0.  0.
   600  5.99  0.  0.
   1                         5.6947497788552E+00  4.5303057184354E-01
     1  0.0000000000000E+00 -4.6032905959281E-09  2.2400540380940E-08
     2  1.0000000000000E-02  1.1926861660497E-03 -2.4330404789233E-04
     3  2.0000000000000E-02  4.7698292687615E-03 -9.8596505273733E-04
     4  3.0000000000000E-02  1.0728594541555E-02 -2.2657454980501E-03
     5  4.0000000000000E-02  1.9063965078606E-02 -4.1439835469270E-03
     6  5.0000000000000E-02  2.9768313710213E-02 -6.7032439199174E-03
     7  6.0000000000000E-02  4.2830823953020E-02 -1.0044127347508E-02
     8  7.0000000000000E-02  5.8236779644198E-02 -1.4281333455025E-02
     9  8.0000000000000E-02  7.5966747471995E-02 -1.9539094338289E-02
    10  9.0000000000000E-02  9.5995680508408E-02 -2.5946115145718E-02
    11  1.0000000000000E-01  1.1829197391777E-01 -3.3630173150602E-02
    12  1.1000000000000E-01  1.4281650616639E-01 -4.2712537640250E-02
    13  1.2000000000000E-01  1.6952170022736E-01 -5.3302379151348E-02
    14  1.3000000000000E-01  1.9835063942407E-01 -6.5491337960082E-02
    15  1.4000000000000E-01  2.2923627167826E-01 -7.9348418243706E-02
    16  1.5000000000000E-01  2.6210073404418E-01 -9.4915366056888E-02
    17  1.6000000000000E-01  2.9685482657143E-01 -1.1220267643713E-01
    18  1.7000000000000E-01  3.3339766082186E-01 -1.3118635792226E-01
    19  1.8000000000000E-01  3.7161650387519E-01 -1.5180556200330E-01
    20  1.9000000000000E-01  4.1138683351903E-01 -1.7396116112693E-01
    21  2.0000000000000E-01  4.5257261467602E-01 -1.9751533247248E-01
    22  2.1000000000000E-01  4.9502680113540E-01 -2.2229217659953E-01
    23  2.2000000000000E-01  5.3859206049549E-01 -2.4807937098416E-01
    24  2.3000000000000E-01  5.8310171406605E-01 -2.7463082925465E-01
    25  2.4000000000000E-01  6.2838087749837E-01 -3.0167030842444E-01
    26  2.5000000000000E-01  6.7424778227996E-01 -3.2889587940982E-01
    27  2.6000000000000E-01  7.2051525311031E-01 -3.5598515137627E-01
    28  2.7000000000000E-01  7.6699231171378E-01 -3.8260111868734E-01
    29  2.8000000000000E-01  8.1348587397371E-01 -4.0839848105337E-01
    30  2.9000000000000E-01  8.5980250449728E-01 -4.3303027341844E-01
    31  3.0000000000000E-01  9.0575019092535E-01 -4.5615463258986E-01
    32  3.1000000000000E-01  9.5114009954038E-01 -4.7744152288775E-01
    33  3.2000000000000E-01  9.9578827402486E-01 -4.9657924331964E-01
    34  3.3000000000000E-01  1.0395172405775E+00 -5.1328054397583E-01
    35  3.4000000000000E-01  1.0821574849706E+00 -5.2728818936459E-01
    36  3.5000000000000E-01  1.1235487704668E+00 -5.3837982099423E-01
    37  3.6000000000000E-01  1.1635412697127E+00 -5.4637199026818E-01
    38  3.7000000000000E-01  1.2019964886806E+00 -5.5112325517241E-01
    39  3.8000000000000E-01  1.2387879662914E+00 -5.5253625968740E-01
    40  3.9000000000000E-01  1.2738017393760E+00 -5.5055874264099E-01
    41  4.0000000000000E-01  1.3069365689407E+00 -5.4518345206458E-01
    42  4.1000000000000E-01  1.3381039301217E+00 -5.3644697120274E-01
    43  4.2000000000000E-01  1.3672277745617E+00 -5.2442749231565E-01
    44  4.3000000000000E-01  1.3942440800360E+00 -5.0924160346250E-01
    45  4.4000000000000E-01  1.4191002078252E+00 -4.9104018074598E-01
    46  4.5000000000000E-01  1.4417540934077E+00 -4.7000350326286E-01
    47  4.6000000000000E-01  1.4621733003934E+00 -4.4633572954171E-01
    48  4.7000000000000E-01  1.4803339710984E+00 -4.2025889194355E-01
    49  4.8000000000000E-01  1.4962197096816E+00 -3.9200657884678E-01
    50  4.9000000000000E-01  1.5098204352429E+00 -3.6181748304859E-01
    51  5.0000000000000E-01  1.5211312426822E+00 -3.2992899843537E-01
    52  5.1000000000000E-01  1.5301513084106E+00 -2.9657104548881E-01
    53  5.2000000000000E-01  1.5368828762269E+00 -2.6196029962940E-01
    54  5.3000000000000E-01  1.5413303558471E+00 -2.2629498492518E-01
    55  5.4000000000000E-01  1.5434995627998E+00 -1.8975037961672E-01
    56  5.5000000000000E-01  1.5433971237691E+00 -1.5247515966976E-01
    57  5.6000000000000E-01  1.5410300661113E+00 -1.1458868271798E-01
    58  5.7000000000000E-01  1.5364056043497E+00 -7.6179287960927E-02
    59  5.8000000000000E-01  1.5295311301175E+00 -3.7303658578791E-02
    60  5.9000000000000E-01  1.5204144054720E+00  2.0127371752537E-03
    61  6.0000000000000E-01  1.5090639529135E+00  4.1774140992958E-02
    62  6.1000000000000E-01  1.4954896290141E+00  8.2011981055124E-02
    63  6.2000000000000E-01  1.4797033624730E+00  1.2278140496392E-01
    64  6.3000000000000E-01  1.4617200318499E+00  1.6415697135667E-01
    65  6.4000000000000E-01  1.4415584533488E+00  2.0622762713323E-01
    66  6.5000000000000E-01  1.4192424449747E+00  2.4909111837321E-01
    67  6.6000000000000E-01  1.3948019303003E+00  2.9284800005950E-01
    68  6.7000000000000E-01  1.3682740430337E+00  3.3759542216970E-01
    69  6.8000000000000E-01  1.3397041926683E+00  3.8342087717584E-01
    70  6.9000000000000E-01  1.3091470517316E+00  4.3039609627892E-01
    71  7.0000000000000E-01  1.2766674265508E+00  4.7857127871110E-01
    72  7.1000000000000E-01  1.2423409759891E+00  5.2796983022845E-01
    73  7.2000000000000E-01  1.2062547462047E+00  5.7858377369916E-01
    74  7.3000000000000E-01  1.1685074940692E+00  6.3036997681673E-01
    75  7.4000000000000E-01  1.1292097773163E+00  6.8324731991497E-01
    76  7.5000000000000E-01  1.0884837956431E+00  7.3709490123379E-01
    77  7.6000000000000E-01  1.0464629736732E+00  7.9175134848153E-01
    78  7.7000000000000E-01  1.0032912837468E+00  8.4701527494936E-01
    79  7.8000000000000E-01  9.5912231371245E-01  9.0264688660111E-01
    80  7.9000000000000E-01  9.1411809207351E-01  9.5837071437215E-01
    81  8.0000000000000E-01  8.6844768977660E-01  1.0138794142638E+00
    82  8.1000000000000E-01  8.2228562442526E-01  1.0688385475985E+00
    83  8.2000000000000E-01  7.7581009857403E-01  1.1228922258589E+00
    84  8.3000000000000E-01  7.2920110883380E-01  1.1756694796568E+00
    85  8.4000000000000E-01  6.8263846664962E-01  1.2267911902731E+00
    86  8.5000000000000E-01  6.3629977467269E-01  1.2758774054864E+00
    87  8.6000000000000E-01  5.9035840454304E-01  1.3225548495385E+00
    88  8.7000000000000E-01  5.4498152256564E-01  1.3664644304326E+00
    89  8.8000000000000E-01  5.0032820916868E-01  1.4072685465204E+00
    90  8.9000000000000E-01  4.5654771618580E-01  1.4446579985705E+00
    91  9.0000000000000E-01  4.1377790294172E-01  1.4783583231197E+00
    92  9.1000000000000E-01  3.7214388791883E-01  1.5081353776469E+00
    93  9.2000000000000E-01  3.3175694754627E-01  1.5338000275906E+00
    94  9.3000000000000E-01  2.9271368751880E-01  1.5552118089188E+00
    95  9.4000000000000E-01  2.5509550518223E-01  1.5722814672263E+00
    96  9.5000000000000E-01  2.1896835409900E-01  1.5849723044223E+00
    97  9.6000000000000E-01  1.8438281413131E-01  1.5933002961626E+00
    98  9.7000000000000E-01  1.5137446246069E-01  1.5973329763888E+00
    99  9.8000000000000E-01  1.1996453311985E-01  1.5971871187439E+00
   100  9.9000000000000E-01  9.0160845060361E-02  1.5930252773150E+00
   101  1.0000000000000E+00  6.1958971728425E-02  1.5850512801919E+00
   102  1.0100000000000E+00  3.5343618763642E-02  1.5735047978861E+00
   103  1.0200000000000E+00  1.0290170957875E-02  1.5586551338916E+00
   104  1.0300000000000E+00 -1.3233634835283E-02  1.5407944059027E+00
   105  1.0400000000000E+00 -3.5265957440523E-02  1.5202303028453E+00
   106  1.0500000000000E+00 -5.5849068377930E-02  1.4972786144186E+00
   107  1.0600000000000E+00 -7.5027587498181E-02  1.4722557359878E+00
   108  1.0700000000000E+00 -9.2846785939238E-02  1.4454713522141E+00
   109  1.0800000000000E+00 -1.0935100313684E-01  1.4172214977312E+00
   110  1.0900000000000E+00 -1.2458222136064E-01  1.3877821826169E+00
   111  1.1000000000000E+00 -1.3857883677492E-01  1.3574037546138E+00
   112  1.1100000000000E+00 -1.5137466047602E-01  1.3263061495366E+00
   113  1.1200000000000E+00 -1.6299817644070E-01  1.2946751564575E+00
   114  1.1300000000000E+00 -1.7347207607605E-01  1.2626597960471E+00
   115  1.1400000000000E+00 -1.8281308118889E-01  1.2303708792448E+00
   116  1.1500000000000E+00 -1.9103205902906E-01  1.1978807806127E+00
   117  1.1600000000000E+00 -1.9813442468480E-01  1.1652244266016E+00
   118  1.1700000000000E+00 -2.0412081790464E-01  1.1324014651182E+00
   119  1.1800000000000E+00 -2.0898803346103E-01  1.0993795495287E+00
   120  1.1900000000000E+00 -2.1273017681476E-01  1.0660986390699E+00
   121  1.2000000000000E+00 -2.1534001018254E-01  1.0324761889733E+00
   122  1.2100000000000E+00 -2.1681044840707E-01  9.9841307853071E-01
   123  1.2200000000000E+00 -2.1713615941698E-01  9.6380010444719E-01
   124  1.2300000000000E+00 -2.1631522066111E-01  9.2852485064464E-01
   125  1.2400000000000E+00 -2.1435078084092E-01  8.9247873483393E-01
   126  1.2500000000000E+00 -2.1125267557170E-01  8.5556402676879E-01
   127  1.2600000000000E+00 -2.0703894633836E-01  8.1770063346770E-01